# OOMMF OVF 2.0
# Segment count: 1
# Begin: Segment
# Begin: Header
# Title: m
# meshtype: rectangular
# meshunit: m
# xmin: 0
# ymin: 0
# zmin: 0
# xmax: 1.6e-07
# ymax: 8e-08
# zmax: 5e-09
# valuedim: 3
# valuelabels: m_x m_y m_z
# valueunits: 1 1 1
# Desc: Total simulation time:  2.000191832677975e-10  s
# xbase: 1.25e-09
# ybase: 1.25e-09
# zbase: 2.5e-09
# xnodes: 64
# ynodes: 32
# znodes: 1
# xstepsize: 2.5e-09
# ystepsize: 2.5e-09
# zstepsize: 5e-09
# End: Header
# Begin: Data Text
0 0 0 
0 0 0 
0 0 0 
0 0 0 
0 0 0 
0 0 0 
0 0 0 
0 0 0 
0 0 0 
0 0 0 
0 0 0 
0 0 0 
0 0 0 
0 0 0 
0 0 0 
0 0 0 
0 0 0 
0 0 0 
0 0 0 
0 0 0 
0 0 0 
0 0 0 
0 0 0 
0 0 0 
0.95076954 -0.28401434 -0.12398839 
0.95757914 -0.26267397 -0.11850988 
0.96555644 -0.23508228 -0.11152248 
0.9735184 -0.20403604 -0.10310794 
0.9809006 -0.17071491 -0.09322307 
0.9872854 -0.1361606 -0.08202437 
0.9924196 -0.1011539 -0.06979536 
0.9961987 -0.06619091 -0.056630157 
0.99859446 -0.031489287 -0.042633977 
0.99960625 0.0027794836 -0.027921282 
0.9992496 0.036558326 -0.012798953 
0.9975741 0.06957405 0.0023414772 
0.9947227 0.10120496 0.016864879 
0.99099606 0.13045947 0.030119488 
0.9868748 0.15608162 0.041433945 
0.9832731 0.17522992 0.0496854 
0 0 0 
0 0 0 
0 0 0 
0 0 0 
0 0 0 
0 0 0 
0 0 0 
0 0 0 
0 0 0 
0 0 0 
0 0 0 
0 0 0 
0 0 0 
0 0 0 
0 0 0 
0 0 0 
0 0 0 
0 0 0 
0 0 0 
0 0 0 
0 0 0 
0 0 0 
0 0 0 
0 0 0 
0 0 0 
0 0 0 
0 0 0 
0 0 0 
0 0 0 
0 0 0 
0 0 0 
0 0 0 
0 0 0 
0 0 0 
0 0 0 
0 0 0 
0 0 0 
0 0 0 
0 0 0 
0 0 0 
0 0 0 
0 0 0 
0.90868604 -0.38899767 -0.15156041 
0.9158055 -0.37321353 -0.14836448 
0.9234401 -0.3558718 -0.1435745 
0.93055344 -0.33933908 -0.13754815 
0.93671966 -0.32470584 -0.13085231 
0.94180804 -0.31233564 -0.124274515 
0.94794303 -0.2950528 -0.1197832 
0.9559956 -0.27024788 -0.1141861 
0.9644431 -0.24149305 -0.107381396 
0.9726948 -0.20976502 -0.099315695 
0.98030514 -0.17588043 -0.089822315 
0.98689485 -0.1406277 -0.07913543 
0.9922021 -0.10488418 -0.06733718 
0.9961143 -0.06906608 -0.054646738 
0.9985945 -0.03352698 -0.041048005 
0.999639 0.0016616536 -0.02681948 
0.999267 0.036313012 -0.0121255 
0.9975272 0.070235275 0.002553312 
0.9945647 0.10275045 0.016837448 
0.9906317 0.13318832 0.030161096 
0.98605853 0.16088642 0.042476118 
0.9811947 0.18520632 0.054365948 
0.97687864 0.20239082 0.06889209 
0.9736834 0.21239811 0.082630105 
0.96998674 0.22376251 0.09516358 
0.9657606 0.23674409 0.106107734 
0.96125275 0.25057596 0.114912756 
0.9571388 0.26321667 0.12084103 
0 0 0 
0 0 0 
0 0 0 
0 0 0 
0 0 0 
0 0 0 
0 0 0 
0 0 0 
0 0 0 
0 0 0 
0 0 0 
0 0 0 
0 0 0 
0 0 0 
0 0 0 
0 0 0 
0 0 0 
0 0 0 
0 0 0 
0 0 0 
0 0 0 
0 0 0 
0 0 0 
0 0 0 
0 0 0 
0 0 0 
0 0 0 
0 0 0 
0 0 0 
0 0 0 
0 0 0 
0 0 0 
0 0 0 
0.9018253 -0.41589585 -0.11722488 
0.90565354 -0.4060292 -0.12219622 
0.9075656 -0.39972308 -0.12863176 
0.90889645 -0.39360002 -0.13779068 
0.91491115 -0.3789361 -0.13908666 
0.9220128 -0.3623228 -0.13643537 
0.9289593 -0.3459343 -0.13177343 
0.93527913 -0.33072847 -0.1259826 
0.9411064 -0.31614712 -0.119874075 
0.94756824 -0.29846632 -0.114159055 
0.9553259 -0.2750795 -0.10809097 
0.96368605 -0.24705486 -0.10135632 
0.97198313 -0.21562885 -0.09355825 
0.97971725 -0.1816008 -0.08470778 
0.98646104 -0.14601146 -0.0746679 
0.9919382 -0.1095543 -0.06369037 
0.9959948 -0.07297032 -0.05166928 
0.99857765 -0.036469746 -0.038892426 
0.9996786 -0.0003949976 -0.025348958 
0.99931455 0.035198968 -0.011474125 
0.9975572 0.0698066 0.00260754 
0.9945551 0.102916636 0.016382914 
0.9905846 0.13364018 0.02970585 
0.9860016 0.16125685 0.042393647 
0.9812876 0.18453178 0.05497978 
0.9770572 0.20180254 0.06808009 
0.973353 0.21463884 0.08070978 
0.96947354 0.22720416 0.09219237 
0.9652353 0.24070704 0.101886734 
0.9608309 0.25473988 0.10913999 
0.95689833 0.26772675 0.11255271 
0.95584756 0.2725303 0.10992175 
0.9552839 0.27515337 0.108275086 
0.95365596 0.28132978 0.10674257 
0 0 0 
0 0 0 
0 0 0 
0 0 0 
0 0 0 
0 0 0 
0 0 0 
0 0 0 
0 0 0 
0 0 0 
0 0 0 
0 0 0 
0 0 0 
0 0 0 
0 0 0 
0 0 0 
0 0 0 
0 0 0 
0 0 0 
0 0 0 
0 0 0 
0 0 0 
0 0 0 
0 0 0 
0 0 0 
0 0 0 
0 0 0 
0.9047257 -0.42453054 -0.035290744 
0.90722287 -0.417793 -0.048944604 
0.90667236 -0.41608062 -0.06944184 
0.90396476 -0.41676393 -0.0956843 
0.9057716 -0.4093775 -0.109489426 
0.9079694 -0.4019647 -0.11838895 
0.9107214 -0.3936337 -0.12505579 
0.9156924 -0.38114446 -0.1274226 
0.92191184 -0.36614436 -0.12655865 
0.92840767 -0.35050067 -0.12332271 
0.93478656 -0.3348161 -0.118626796 
0.94108605 -0.31874627 -0.11295115 
0.94785947 -0.30024344 -0.10684751 
0.95543426 -0.27759618 -0.10042855 
0.96352965 -0.25072932 -0.09351756 
0.9716669 -0.22011667 -0.08609471 
0.9793367 -0.18666682 -0.07781505 
0.986127 -0.1510565 -0.06881427 
0.9916989 -0.11435708 -0.05878695 
0.99586636 -0.0771035 -0.04801323 
0.9985415 -0.039968774 -0.03629796 
0.9997064 -0.00307808 -0.024036918 
0.99939144 0.033050332 -0.011155303 
0.9976787 0.068072565 0.0018663615 
0.99476254 0.101096496 0.015067364 
0.99091804 0.13151427 0.028027762 
0.98652434 0.15843134 0.04085611 
0.98199725 0.18116648 0.053480923 
0.9777036 0.19935922 0.06596772 
0.9736881 0.21424155 0.07766583 
0.9696728 0.22806084 0.08788075 
0.9655961 0.24160968 0.09617176 
0.9616357 0.25473648 0.10181387 
0.95838416 0.2657503 0.10429095 
0.9566415 0.2724786 0.102919444 
0.95560646 0.27746147 0.09915326 
0.95485795 0.28281888 0.09088398 
0.95710087 0.2805291 0.07253627 
0.9587977 0.27802023 0.058411215 
0.9585298 0.28067917 0.0493961 
0 0 0 
0 0 0 
0 0 0 
0 0 0 
0 0 0 
0 0 0 
0 0 0 
0 0 0 
0 0 0 
0 0 0 
0 0 0 
0 0 0 
0 0 0 
0 0 0 
0 0 0 
0 0 0 
0 0 0 
0 0 0 
0 0 0 
0 0 0 
0 0 0 
0 0 0 
0.91177434 -0.40995926 0.024515871 
0.9114411 -0.41134867 0.008210999 
0.9076897 -0.4192606 -0.017890641 
0.9078936 -0.4174189 -0.038608253 
0.9076869 -0.41542563 -0.059380546 
0.9071229 -0.41322473 -0.07983427 
0.9082933 -0.40750012 -0.0945894 
0.91054934 -0.39990193 -0.104778424 
0.9136999 -0.39084166 -0.11133431 
0.9181843 -0.37920347 -0.11464123 
0.923616 -0.36569187 -0.11490479 
0.92958266 -0.35087806 -0.112963945 
0.93575424 -0.3353706 -0.10904433 
0.94215536 -0.31871128 -0.103761055 
0.94895804 -0.29993352 -0.09756352 
0.95630616 -0.2778956 -0.090843305 
0.9640573 -0.25208932 -0.08393182 
0.9718572 -0.22273564 -0.07669794 
0.97931147 -0.19011962 -0.06930927 
0.9859872 -0.15514995 -0.061301526 
0.99155015 -0.118478484 -0.05283311 
0.995749 -0.0811986 -0.04348326 
0.9984805 -0.04368148 -0.03359645 
0.9997177 -0.0066023446 -0.022825543 
0.99948865 0.029796174 -0.011606862 
0.9979112 0.06459929 0.00028889894 
0.9951822 0.09724954 0.012445931 
0.9916009 0.12689124 0.025029292 
0.98748666 0.15314893 0.037625287 
0.98317724 0.1756216 0.0501958 
0.9789324 0.19445895 0.0622664 
0.9748307 0.2105808 0.07321829 
0.9708588 0.22501212 0.082479455 
0.967009 0.238532 0.0894209 
0.9634774 0.25077248 0.09393887 
0.96055305 0.26121327 0.09542224 
0.9585895 0.26888102 0.0938575 
0.95740926 0.2747259 0.088843234 
0.9570749 0.27866852 0.07969704 
0.9580905 0.27884018 0.065657064 
0.95919776 0.27804703 0.051279105 
0.9598505 0.27804425 0.03712785 
0.9626487 0.27005413 0.01945112 
0.96395564 0.26591066 0.009001976 
0 0 0 
0 0 0 
0 0 0 
0 0 0 
0 0 0 
0 0 0 
0 0 0 
0 0 0 
0 0 0 
0 0 0 
0 0 0 
0 0 0 
0 0 0 
0 0 0 
0 0 0 
0 0 0 
0 0 0 
0 0 0 
0.9182345 -0.38788518 0.0799412 
0.918574 -0.39015567 0.06324895 
0.9150162 -0.4016029 0.038217507 
0.913876 -0.40564063 0.016923638 
0.9121822 -0.4097476 -0.0055389265 
0.9116433 -0.41012186 -0.026582882 
0.91151786 -0.40860003 -0.04670491 
0.91172963 -0.4056238 -0.064951226 
0.9129881 -0.40016016 -0.07952617 
0.9152177 -0.3927836 -0.08998631 
0.9183885 -0.3835778 -0.097112246 
0.92241234 -0.37278807 -0.10091872 
0.92720836 -0.36033735 -0.102184966 
0.9325311 -0.346711 -0.100882106 
0.93831915 -0.33171502 -0.09758272 
0.9444696 -0.31531206 -0.09249707 
0.9510387 -0.296774 -0.08631634 
0.9580153 -0.27545387 -0.07957281 
0.9652955 -0.25087097 -0.072584234 
0.97264683 -0.2227688 -0.06582012 
0.9797098 -0.19151737 -0.059074905 
0.9861317 -0.15742789 -0.05254197 
0.9915297 -0.12161646 -0.045588218 
0.9956621 -0.084725596 -0.038454134 
0.99839336 -0.047743846 -0.030517986 
0.9996973 -0.010904952 -0.022056554 
0.9996107 0.02493258 -0.012526105 
0.9982407 0.05924519 -0.002334478 
0.9958118 0.09099283 0.008891867 
0.9925791 0.119827926 0.02069256 
0.9888328 0.14532089 0.03304204 
0.9848269 0.1675213 0.045304943 
0.9807618 0.18669808 0.057009865 
0.97679013 0.20329002 0.06748544 
0.9729718 0.21807921 0.075943284 
0.9694227 0.23123746 0.08215144 
0.96620935 0.24312116 0.08562472 
0.9635279 0.25322068 0.086563356 
0.96151173 0.2615002 0.0843388 
0.9602777 0.26762938 0.0790027 
0.95987684 0.2715743 0.06988505 
0.96037096 0.27272475 0.057523675 
0.96125203 0.27220762 0.04356144 
0.96232206 0.270356 0.029052373 
0.96398604 0.26559404 0.013815438 
0.9652299 0.26140264 -0.00028397425 
0.9676605 0.25170177 -0.016720938 
0.96849173 0.2475543 -0.027217502 
0 0 0 
0 0 0 
0 0 0 
0 0 0 
0 0 0 
0 0 0 
0 0 0 
0 0 0 
0 0 0 
0 0 0 
0 0 0 
0 0 0 
0 0 0 
0 0 0 
0.9198223 -0.37253344 0.12306902 
0.92147285 -0.37289795 0.10878907 
0.920368 -0.3810703 0.08779566 
0.92085665 -0.38395828 0.06781669 
0.92003065 -0.38910884 0.046238694 
0.91924554 -0.39285845 0.025495045 
0.91838115 -0.39566678 0.00490963 
0.9178821 -0.39656958 -0.015001008 
0.91781986 -0.39555407 -0.033817686 
0.9183368 -0.39252466 -0.05081208 
0.91965187 -0.38736582 -0.06471606 
0.9218743 -0.38007483 -0.075438716 
0.9248124 -0.37132442 -0.082706496 
0.9284174 -0.36116776 -0.087172344 
0.93252164 -0.35004953 -0.08870576 
0.9371959 -0.3375383 -0.0879311 
0.9423653 -0.32368112 -0.08472487 
0.94803226 -0.3079978 -0.07982703 
0.9540898 -0.2903129 -0.073695935 
0.9605123 -0.2700624 -0.066951446 
0.9672066 -0.24676189 -0.060166933 
0.97396994 -0.22024767 -0.05360734 
0.98053896 -0.19040598 -0.04784285 
0.9865409 -0.15790859 -0.042450327 
0.99165654 -0.123288825 -0.037645753 
0.9956066 -0.08777452 -0.032606367 
0.9982801 -0.05179253 -0.02746873 
0.9996434 -0.016197553 -0.021231776 
0.999726 0.018698087 -0.014085132 
0.99864376 0.051786795 -0.005360896 
0.9965778 0.08253773 0.004499164 
0.9937799 0.110253006 0.015681608 
0.9904749 0.1349307 0.02744612 
0.98687285 0.15662634 0.03937273 
0.983151 0.17561428 0.050732877 
0.9794438 0.19234568 0.060770128 
0.9759246 0.20692359 0.06894782 
0.97266924 0.21991643 0.07450734 
0.9697792 0.23129886 0.07764841 
0.96726954 0.24150178 0.07788824 
0.965303 0.24998727 0.07547468 
0.9639836 0.25663522 0.069814585 
0.9634611 0.26075715 0.061224315 
0.9636802 0.2623692 0.049827855 
0.9644205 0.26178947 0.036872912 
0.96546954 0.25948673 0.023133563 
0.96669084 0.25578496 0.009109234 
0.96778435 0.25173485 -0.0047956742 
0.9688272 0.24700448 -0.019047044 
0.9691571 0.24437845 -0.03183888 
0.9703348 0.23762625 -0.04454359 
0.9706416 0.2347422 -0.052448817 
0 0 0 
0 0 0 
0 0 0 
0 0 0 
0 0 0 
0 0 0 
0 0 0 
0 0 0 
0 0 0 
0 0 0 
0 0 0 
0.9213416 -0.36686817 0.12859823 
0.92168176 -0.36868268 0.12073091 
0.9239248 -0.36721772 0.107304014 
0.9251426 -0.36886853 0.08970713 
0.9263029 -0.3700427 0.0709321 
0.9266844 -0.37228975 0.05154008 
0.9266673 -0.37448013 0.032442264 
0.9263222 -0.37648407 0.013673366 
0.92606384 -0.37733945 -0.0045664203 
0.9261285 -0.37657025 -0.021930745 
0.9267325 -0.3738361 -0.03759701 
0.9280889 -0.36884665 -0.05102228 
0.9301486 -0.36200073 -0.061474744 
0.9328416 -0.353589 -0.069147 
0.9359097 -0.3444588 -0.073628955 
0.93938816 -0.33442524 -0.07556197 
0.9432826 -0.32348603 -0.07466391 
0.9477337 -0.31091976 -0.071622394 
0.9526436 -0.29670054 -0.06662612 
0.9579745 -0.28038827 -0.060559012 
0.9636473 -0.26168543 -0.053895194 
0.96960396 -0.24009478 -0.04714636 
0.9756952 -0.21524674 -0.04108474 
0.9816412 -0.18733329 -0.03587396 
0.9871521 -0.1565364 -0.032050394 
0.9918739 -0.12389711 -0.028909579 
0.9955853 -0.09001026 -0.026611026 
0.99814945 -0.05592782 -0.023871198 
0.9995497 -0.021871718 -0.020547453 
0.9998185 0.011238482 -0.015381854 
0.99904174 0.042905968 -0.008641227 
0.99739677 0.07210877 0.00018260926 
0.9950748 0.09858248 0.010377082 
0.9922853 0.12206966 0.02165526 
0.9891962 0.14280532 0.033130523 
0.98593587 0.1611939 0.044126946 
0.98266125 0.17736478 0.054024503 
0.97950304 0.19169852 0.06185094 
0.97661686 0.20414777 0.06740312 
0.9739985 0.21544902 0.07006313 
0.9716986 0.22554278 0.07023121 
0.9697672 0.23455042 0.06736159 
0.96841735 0.24152961 0.061897505 
0.9677518 0.2461239 0.053660914 
0.96779424 0.24797499 0.04339009 
0.96837395 0.2474916 0.031619053 
0.9692565 0.24530368 0.019184005 
0.9702323 0.24209069 0.0064462167 
0.9709903 0.23903313 -0.00640904 
0.9714984 0.23625863 -0.019306064 
0.9715457 0.23475987 -0.03141533 
0.9715907 0.23291714 -0.041965596 
0.97111034 0.23359463 -0.04876851 
0.9714376 0.23180999 -0.050726213 
0 0 0 
0 0 0 
0 0 0 
0 0 0 
0 0 0 
0 0 0 
0 0 0 
0 0 0 
0 0 0 
0.92916733 -0.3479102 0.124927126 
0.9269152 -0.35478276 0.12230028 
0.9279978 -0.35437998 0.115043715 
0.93014383 -0.3523234 0.1034439 
0.9322496 -0.35081786 0.0885308 
0.9339058 -0.35021266 0.07191027 
0.9350642 -0.35023445 0.054689113 
0.9355575 -0.35117036 0.03757134 
0.93569237 -0.3522074 0.020731522 
0.9356664 -0.35286018 0.0042756917 
0.9358644 -0.3521745 -0.0114479195 
0.93652767 -0.3496287 -0.025998037 
0.93778425 -0.34506828 -0.03858319 
0.93967986 -0.3385279 -0.048996363 
0.94197935 -0.33088475 -0.056481447 
0.9445691 -0.3225373 -0.061308987 
0.9473388 -0.31396815 -0.063033074 
0.95048517 -0.30445692 -0.062320717 
0.95404696 -0.2937855 -0.059030037 
0.9580746 -0.2813618 -0.05411564 
0.96247137 -0.2671146 -0.04794545 
0.9672402 -0.2504837 -0.041283984 
0.97233987 -0.23097333 -0.034736805 
0.97763413 -0.20832026 -0.02888554 
0.9829098 -0.18243596 -0.024609407 
0.98784095 -0.15394473 -0.021710852 
0.99215156 -0.12333149 -0.020609578 
0.99557704 -0.09176034 -0.02016087 
0.99801445 -0.059653 -0.020218706 
0.99943155 -0.027870635 -0.018968303 
0.99986273 0.003306339 -0.016239522 
0.9994005 0.03285121 -0.010936496 
0.9981743 0.06029259 -0.003607092 
0.9963666 0.0849691 0.0058128694 
0.99413896 0.10686278 0.016377993 
0.99162877 0.12617604 0.027422408 
0.98894507 0.1432795 0.03819351 
0.98618007 0.15864246 0.047765482 
0.983496 0.17215447 0.05566469 
0.9809761 0.18432707 0.06090604 
0.97867763 0.19527994 0.06368596 
0.9765583 0.20569248 0.06343959 
0.9747345 0.21496516 0.06068553 
0.9733561 0.22256047 0.05518008 
0.97260904 0.22750491 0.047678005 
0.9724972 0.22973129 0.03837666 
0.97289807 0.22952715 0.02804737 
0.97361577 0.22755209 0.017098652 
0.97433627 0.22502117 0.0058575724 
0.9749048 0.22255228 -0.005588563 
0.975099 0.22111504 -0.017034033 
0.9750261 0.22035506 -0.027713018 
0.97467864 0.22062439 -0.036419984 
0.9742496 0.22159088 -0.041656606 
0.9742011 0.22164656 -0.042487215 
0.9759578 0.21448651 -0.038756195 
0 0 0 
0 0 0 
0 0 0 
0 0 0 
0 0 0 
0 0 0 
0 0 0 
0.9407572 -0.3186834 0.11583081 
0.93672085 -0.3301841 0.11632963 
0.93600357 -0.3331742 0.113544196 
0.9370775 -0.33222494 0.10729625 
0.9391478 -0.32934067 0.097653985 
0.941255 -0.32679617 0.08510874 
0.943245 -0.32444918 0.07086481 
0.94463754 -0.32331452 0.055925805 
0.94556504 -0.322848 0.040939327 
0.94595206 -0.3232551 0.026092742 
0.9461816 -0.3234334 0.011461043 
0.946484 -0.32273906 -0.002758574 
0.9471368 -0.3204287 -0.016039567 
0.94827926 -0.31619844 -0.028020533 
0.94986516 -0.31035426 -0.03790074 
0.9517861 -0.30336466 -0.045531765 
0.95379657 -0.29624113 -0.0501343 
0.9559377 -0.2889039 -0.05213176 
0.9582644 -0.28127035 -0.05115148 
0.960954 -0.27250335 -0.048055686 
0.9639887 -0.2624525 -0.04294773 
0.9673981 -0.25056714 -0.03683967 
0.97117275 -0.23646127 -0.030159647 
0.97532403 -0.2194997 -0.023729093 
0.9797662 -0.19929479 -0.018437166 
0.98427886 -0.17601469 -0.014631173 
0.98861486 -0.14990525 -0.01300215 
0.9924551 -0.121935405 -0.012827584 
0.9955904 -0.09270594 -0.014334704 
0.99787337 -0.063249245 -0.015761096 
0.999288 -0.033821385 -0.016724017 
0.9998676 -0.0052854978 -0.015387954 
0.9996883 0.02192415 -0.0119411275 
0.9988822 0.046922196 -0.005717495 
0.99758303 0.069439545 0.0025238977 
0.9959312 0.089259855 0.012402907 
0.9940291 0.10666762 0.02298534 
0.99194074 0.122241944 0.03332476 
0.9897538 0.13620883 0.042833086 
0.9875579 0.14897227 0.050366145 
0.98546386 0.16047354 0.055761263 
0.9834726 0.17145312 0.05818583 
0.9816058 0.18186691 0.058089368 
0.9799152 0.19164655 0.055116825 
0.97860223 0.19957513 0.050075706 
0.97781134 0.20500395 0.043110777 
0.9775864 0.20760563 0.034999494 
0.97784317 0.20771268 0.026042046 
0.97835475 0.20625958 0.016701657 
0.9789403 0.2040232 0.0071030725 
0.979305 0.20237195 -0.0027005048 
0.9794757 0.20117648 -0.012474455 
0.9793293 0.20113137 -0.021458654 
0.9791193 0.20128334 -0.02846673 
0.9788432 0.20206514 -0.032180835 
0.97897315 0.20147024 -0.03196042 
0.9799225 0.19744082 -0.027735539 
0.9826053 0.18462563 -0.020006893 
0 0 0 
0 0 0 
0 0 0 
0 0 0 
0 0 0 
0.95363015 -0.28165236 0.106120616 
0.9488265 -0.29703012 0.10724448 
0.9468786 -0.30343387 0.1065311 
0.9467053 -0.3049464 0.10371564 
0.94787306 -0.30305016 0.09847474 
0.94960475 -0.3001179 0.09044493 
0.9516839 -0.2964569 0.080069534 
0.9535083 -0.2935671 0.06811962 
0.95507747 -0.29110718 0.055530597 
0.9560649 -0.2900213 0.04275139 
0.9567034 -0.28952542 0.029895594 
0.95704854 -0.28942892 0.01700635 
0.9574455 -0.2885823 0.0042969976 
0.95804805 -0.28649822 -0.007927647 
0.95897675 -0.28284675 -0.019010182 
0.96023875 -0.2777082 -0.028630974 
0.96166056 -0.27188805 -0.035860326 
0.9631423 -0.26589766 -0.040687777 
0.9646105 -0.26024044 -0.042443756 
0.9662144 -0.25432897 -0.041792054 
0.96802187 -0.24788763 -0.038542174 
0.9701378 -0.24019974 -0.03371849 
0.9725657 -0.2309933 -0.027532442 
0.9753684 -0.21957654 -0.021041255 
0.97856665 -0.20538747 -0.014945825 
0.9821039 -0.18807244 -0.01004158 
0.98583275 -0.16758046 -0.0071135964 
0.9894902 -0.14448047 -0.005872112 
0.99283534 -0.119296655 -0.006812271 
0.99561507 -0.09314341 -0.008653146 
0.99772036 -0.066512085 -0.011413783 
0.99910724 -0.040206045 -0.012976798 
0.9998068 -0.014530531 -0.013240719 
0.9998954 0.009617729 -0.010812221 
0.99947363 0.031853445 -0.0061481395 
0.99866337 0.0516759 0.0010351829 
0.99755985 0.06910157 0.009964049 
0.9962318 0.08443305 0.01983103 
0.99472696 0.09812076 0.029843705 
0.9930908 0.11075219 0.038789127 
0.99140495 0.12236196 0.04630153 
0.98972785 0.1334573 0.05126337 
0.9880976 0.14409223 0.05385749 
0.9865146 0.15469116 0.05347611 
0.9850632 0.16451307 0.050853245 
0.9838855 0.17277037 0.046039447 
0.9831364 0.17845455 0.03996195 
0.98286396 0.18137543 0.03288491 
0.98298 0.18195148 0.025376134 
0.98337245 0.18074347 0.017620046 
0.9837748 0.17914285 0.009752639 
0.9841213 0.17748846 0.00177557 
0.9842257 0.17681101 -0.0061329273 
0.9842586 0.17622845 -0.0133665 
0.98415273 0.17632648 -0.018775526 
0.9841911 0.1758234 -0.021305466 
0.9844014 0.17476444 -0.020283464 
0.9851759 0.17081125 -0.01587683 
0.98670745 0.16228305 -0.008523132 
0.9895174 0.14441127 0.0009197688 
0 0 0 
0 0 0 
0 0 0 
0.96613973 -0.23821041 0.09914539 
0.9612332 -0.25736487 0.09896466 
0.9587824 -0.26669016 0.09804536 
0.9578316 -0.2706805 0.096387744 
0.95813614 -0.27056634 0.09364273 
0.9591568 -0.26848036 0.08908737 
0.9607967 -0.26469216 0.0825091 
0.9625027 -0.26099405 0.07396473 
0.96425587 -0.25706735 0.06424211 
0.96561205 -0.25433606 0.05391247 
0.9666854 -0.25227934 0.04329728 
0.9673262 -0.25146002 0.03237344 
0.96780074 -0.2508256 0.021174675 
0.9681899 -0.25002238 0.009855684 
0.9686978 -0.2482405 -0.0011592861 
0.96938384 -0.2452807 -0.011512873 
0.9702399 -0.2412862 -0.020387035 
0.9711918 -0.23670779 -0.027492397 
0.9721041 -0.2323683 -0.031918157 
0.97299755 -0.22830303 -0.033964563 
0.9739078 -0.22450396 -0.033190005 
0.9749706 -0.22023326 -0.0304897 
0.97624636 -0.21512842 -0.025746835 
0.97781795 -0.20849441 -0.020056743 
0.97972757 -0.19985497 -0.013852123 
0.982023 -0.18857993 -0.008274415 
0.98468477 -0.17429636 -0.0040989043 
0.98758125 -0.15710203 -0.0015329722 
0.99053574 -0.13725114 -0.0010704992 
0.99329394 -0.11560245 -0.0018144351 
0.995675 -0.09280949 -0.0042249965 
0.9975376 -0.06982648 -0.0065679117 
0.9988578 -0.04693822 -0.008940264 
0.9996452 -0.02490248 -0.009464437 
0.9999561 -0.004122416 -0.00842435 
0.99987966 0.014755746 -0.0048085963 
0.9994996 0.03161906 0.0009557823 
0.99888366 0.046426788 0.0087207705 
0.9980709 0.059495065 0.017744914 
0.9970875 0.0713907 0.026831333 
0.9959681 0.08242929 0.035399515 
0.99476343 0.09309411 0.042181402 
0.99351937 0.10341434 0.04716778 
0.9922683 0.113847256 0.049420558 
0.99103767 0.124108605 0.049410697 
0.9898895 0.13386244 0.046902042 
0.9889434 0.1419688 0.04284816 
0.988319 0.14770597 0.037529662 
0.988048 0.15085332 0.031694293 
0.9881113 0.15160152 0.025555788 
0.9883543 0.15092756 0.019408973 
0.9887007 0.14931211 0.013298422 
0.988946 0.14809936 0.007234908 
0.98915595 0.14686352 0.0012453957 
0.98922426 0.14634894 -0.004186859 
0.98935777 0.14527194 -0.008212993 
0.9894838 0.14431755 -0.00971914 
0.9898375 0.1419629 -0.008263375 
0.99040383 0.13815114 -0.0038297207 
0.9914275 0.13062535 0.002932476 
0.9929637 0.11787897 0.011298654 
0.9952783 0.09493532 0.020210197 
0 0 0 
0 0 0 
0.97070867 -0.22142026 0.09326191 
0.969737 -0.22662425 0.09083812 
0.9689349 -0.23095958 0.08844635 
0.9688365 -0.2322291 0.08617238 
0.9692923 -0.23135851 0.08334109 
0.9703659 -0.22819151 0.07949096 
0.97165483 -0.2245057 0.07405537 
0.97319144 -0.21993141 0.06729542 
0.9745518 -0.21610299 0.05956867 
0.9757956 -0.21255721 0.051403645 
0.97667015 -0.21043321 0.04281725 
0.9773497 -0.20892093 0.03375996 
0.97778344 -0.20821412 0.02421644 
0.97816145 -0.2073478 0.0143942265 
0.9785175 -0.20611352 0.004568079 
0.9789398 -0.20409697 -0.004628357 
0.97942555 -0.20139836 -0.012821655 
0.97991 -0.19852355 -0.0191028 
0.98034936 -0.19587275 -0.023435034 
0.98071134 -0.19383648 -0.025156077 
0.9810693 -0.19204094 -0.024967171 
0.9814949 -0.19015904 -0.022524549 
0.9821008 -0.18742163 -0.018740876 
0.9829478 -0.18338275 -0.013579538 
0.9841007 -0.17741792 -0.00828822 
0.98559743 -0.1690727 -0.0034880524 
0.98742855 -0.15806608 5.3420594e-05 
0.9895233 -0.14436196 0.0018603927 
0.9917206 -0.12839127 0.0024603053 
0.9938627 -0.11061328 0.0013604136 
0.9957605 -0.091983914 -0.00013739569 
0.9973288 -0.07299515 -0.0026249231 
0.9985142 -0.05432565 -0.0042815288 
0.99932677 -0.03626652 -0.0055441 
0.9997979 -0.019501826 -0.004902189 
0.99998754 -0.0042241598 -0.0026738013 
0.9999546 0.009365489 0.0017943053 
0.9997373 0.021422934 0.008145378 
0.99935657 0.032248903 0.015704734 
0.9988238 0.042222608 0.023836637 
0.9981691 0.051844824 0.031155646 
0.99741644 0.061267983 0.037505105 
0.9966073 0.0708859 0.041822616 
0.99575865 0.080594584 0.04437634 
0.994913 0.090390526 0.044471208 
0.9941155 0.0995046 0.042817343 
0.99345535 0.1071777 0.03948935 
0.9930045 0.112650305 0.0353865 
0.99281096 0.1156654 0.030790586 
0.99282426 0.11668078 0.026183156 
0.99301547 0.11597796 0.021664355 
0.99324 0.114775464 0.017349225 
0.9934992 0.113075405 0.013168183 
0.9936704 0.11196503 0.009114636 
0.99387085 0.11041782 0.005360767 
0.994019 0.10917405 0.0027255183 
0.9942704 0.10687575 0.0020035298 
0.9945392 0.10429175 0.0038767625 
0.9949719 0.099823914 0.008133381 
0.99550074 0.09366116 0.014353224 
0.99617696 0.08467744 0.021477627 
0.9967856 0.07513533 0.02780734 
0 0 0 
0.98496854 -0.15015103 0.08539138 
0.98042995 -0.17768623 0.084762976 
0.97912365 -0.18613233 0.08167976 
0.97886044 -0.18885674 0.07851985 
0.97904044 -0.18910684 0.07562104 
0.97968376 -0.18685871 0.07282685 
0.9805306 -0.18369026 0.06940982 
0.98166144 -0.17914684 0.065170795 
0.9827585 -0.17490555 0.059947934 
0.9838796 -0.17042689 0.05418196 
0.98475873 -0.16718286 0.047961976 
0.9855153 -0.16447267 0.041334186 
0.98603433 -0.16301017 0.034119662 
0.9864469 -0.1619503 0.026357738 
0.98671836 -0.16142228 0.018160664 
0.98694444 -0.16075504 0.009931977 
0.9871318 -0.15989646 0.002024428 
0.98730206 -0.15878153 -0.0048016896 
0.9874316 -0.15770756 -0.010359565 
0.9874797 -0.157133 -0.013901475 
0.98745614 -0.15709563 -0.015858978 
0.98738676 -0.15753649 -0.015804635 
0.98736155 -0.15781538 -0.014544739 
0.9874611 -0.15743569 -0.011606995 
0.98776263 -0.15576208 -0.0079487655 
0.98831046 -0.15240842 -0.003754485 
0.9891372 -0.14699593 -0.00013403554 
0.99024343 -0.13932638 0.0024647065 
0.9915713 -0.12950006 0.004029756 
0.99304146 -0.1176916 0.0041850014 
0.99451655 -0.10450683 0.0039069504 
0.9958982 -0.09044932 0.0024216834 
0.99708635 -0.07627254 0.0012072377 
0.9980622 -0.06222229 -0.00058553764 
0.9988053 -0.04885114 -0.0013247443 
0.99933726 -0.036368623 -0.0015566443 
0.99968565 -0.025075579 -9.782995e-05 
0.99988556 -0.014861029 0.00285063 
0.9999564 -0.005627851 0.007456825 
0.99990565 0.0028897952 0.013431295 
0.9997449 0.011058048 0.019695243 
0.99948126 0.019107614 0.025924498 
0.9991463 0.027364176 0.030952174 
0.9987419 0.035837628 0.035074804 
0.9983021 0.044661228 0.037392646 
0.99783766 0.05340382 0.038313832 
0.99739903 0.061593827 0.037436213 
0.99702454 0.06840788 0.03553223 
0.9967743 0.073259 0.03277516 
0.9966557 0.07607139 0.029843982 
0.9966796 0.07684705 0.026912946 
0.9967821 0.076415665 0.024210945 
0.99695843 0.07484868 0.021717584 
0.99711955 0.07331694 0.019424157 
0.9973083 0.07128783 0.017154641 
0.99745536 0.069675766 0.015102446 
0.99764585 0.067195244 0.013694035 
0.9978037 0.06477754 0.01384667 
0.99800503 0.06108824 0.0159409 
0.9981776 0.056886178 0.02013998 
0.99838006 0.05067857 0.025864147 
0.9985586 0.042580362 0.032675453 
0.9987546 0.029765574 0.0400407 
0.998794 -0.0005578344 0.04909467 
0.9884017 -0.128831 0.08040321 
0.9874998 -0.13760434 0.07687219 
0.98722154 -0.14190055 0.072512135 
0.98736185 -0.14297259 0.06837773 
0.98781097 -0.14145596 0.064960554 
0.98836935 -0.13890825 0.061892346 
0.9891174 -0.13479967 0.05895655 
0.9898583 -0.13071637 0.055621285 
0.99067277 -0.12596503 0.05196555 
0.99135864 -0.12212596 0.04788878 
0.99199945 -0.11849417 0.04354703 
0.99247676 -0.116141215 0.038745563 
0.9928874 -0.11425985 0.03345798 
0.9931618 -0.11342907 0.02763168 
0.99336076 -0.11302406 0.02145065 
0.9934569 -0.11320403 0.0151096 
0.9934891 -0.11356038 0.009141395 
0.99345475 -0.1141653 0.0037441081 
0.9933486 -0.11514502 -0.00044420914 
0.99316686 -0.11664656 -0.003639741 
0.99290633 -0.11877935 -0.0053350898 
0.9926071 -0.12121106 -0.0062422287 
0.99231917 -0.12356811 -0.0058064107 
0.99211764 -0.12522133 -0.004717987 
0.9920538 -0.12578908 -0.0025278246 
0.9921671 -0.124917954 -0.00020495063 
0.9924758 -0.12242351 0.0020825781 
0.99297523 -0.11826172 0.0038119662 
0.9936445 -0.1124663 0.0047029853 
0.9944231 -0.10533153 0.005285038 
0.9952624 -0.097104095 0.0048749777 
0.9960749 -0.0883936 0.004639483 
0.9968301 -0.07948466 0.0034568373 
0.9974851 -0.07082184 0.0028088165 
0.9980447 -0.062480167 0.0017256674 
0.99849826 -0.05475954 0.0016082309 
0.99886584 -0.047572687 0.0020018169 
0.99915665 -0.04090096 0.0036446531 
0.9993823 -0.034538966 0.00649032 
0.99954695 -0.02830649 0.010236643 
0.9996487 -0.02200241 0.014776275 
0.9997008 -0.015412882 0.018995866 
0.99969655 -0.008530821 0.023109458 
0.99965495 -0.0012571879 0.026238512 
0.9995652 0.006189587 0.028828789 
0.9994533 0.013596857 0.03013588 
0.9993217 0.020373791 0.030676886 
0.9992046 0.02598664 0.030247537 
0.9991142 0.030033816 0.029477246 
0.99907434 0.032236185 0.028485168 
0.9990744 0.03296863 0.027632017 
0.9991198 0.032186195 0.02690106 
0.9991775 0.03082661 0.026345326 
0.99925727 0.028599383 0.025828233 
0.9993264 0.02656411 0.025321433 
0.9994104 0.023776587 0.0247711 
0.9994704 0.021200478 0.024690915 
0.9995191 0.01759734 0.02553404 
0.99951017 0.014086229 0.02794729 
0.99944913 0.009365483 0.031840727 
0.99930185 0.0041527674 0.037128508 
0.999061 -0.0030341342 0.043219842 
0.9986828 -0.012662217 0.049723882 
0.9981306 -0.025608689 0.05549339 
0.99266845 -0.09648674 0.07279967 
0.99295086 -0.0968226 0.06836693 
0.99335116 -0.096301325 0.06308292 
0.9938435 -0.09424318 0.058253642 
0.994321 -0.091635555 0.054118216 
0.9948377 -0.08781387 0.050859068 
0.9952984 -0.08408151 0.048078325 
0.99578154 -0.07956348 0.045703802 
0.99618685 -0.0757357 0.04331207 
0.9965846 -0.07174274 0.040894434 
0.99689645 -0.06884426 0.03818414 
0.9971866 -0.06617862 0.035204805 
0.9974017 -0.06462237 0.03184061 
0.9975773 -0.06360297 0.028182767 
0.9976737 -0.06370734 0.024261298 
0.9977078 -0.06454056 0.020338781 
0.9976663 -0.06625998 0.016485352 
0.9975557 -0.06863973 0.013088928 
0.99737763 -0.07168439 0.009961597 
0.9971282 -0.075353354 0.0075704637 
0.9968258 -0.07943077 0.0053985473 
0.9964812 -0.08372098 0.0040005553 
0.99613726 -0.08776731 0.002735978 
0.9958252 -0.09125114 0.002337589 
0.995586 -0.09382936 0.0021884153 
0.99543756 -0.09537585 0.0027341687 
0.99539095 -0.09584189 0.0033731984 
0.99544525 -0.09525005 0.0040385774 
0.99558294 -0.09376641 0.004752405 
0.9957935 -0.0914904 0.0049816016 
0.996038 -0.08875912 0.005494868 
0.9963059 -0.08572003 0.005165366 
0.9965577 -0.082736745 0.0052444707 
0.99680346 -0.07976926 0.0044460697 
0.9970251 -0.07696516 0.0041715717 
0.9972411 -0.074146785 0.0035317128 
0.99744815 -0.07130819 0.0035331957 
0.99766237 -0.06822617 0.0038722348 
0.9978861 -0.064806804 0.0048391884 
0.9981217 -0.06090353 0.006622052 
0.9983695 -0.056416057 0.008696222 
0.9986153 -0.051366307 0.011353233 
0.9988561 -0.045804534 0.013727405 
0.9990664 -0.03998634 0.016352063 
0.9992488 -0.0340692 0.018474925 
0.9993831 -0.028440306 0.020609267 
0.9994791 -0.023389248 0.022239339 
0.99953026 -0.01926662 0.023837116 
0.99954826 -0.016369803 0.025205428 
0.99953663 -0.014682859 0.026663888 
0.9995009 -0.014439957 0.02810137 
0.9994489 -0.015091919 0.029566467 
0.9993783 -0.016913334 0.03093396 
0.99930066 -0.018985234 0.032213625 
0.9992048 -0.021971803 0.03327167 