# OOMMF OVF 2.0
# Segment count: 1
# Begin: Segment
# Begin: Header
# Title: m
# meshtype: rectangular
# meshunit: m
# xmin: 0
# ymin: 0
# zmin: 0
# xmax: 1.6e-07
# ymax: 8e-08
# zmax: 5e-09
# valuedim: 3
# valuelabels: m_x m_y m_z
# valueunits: 1 1 1
# Desc: Total simulation time:  1e-09  s
# xbase: 1.25e-09
# ybase: 1.25e-09
# zbase: 2.5e-09
# xnodes: 64
# ynodes: 32
# znodes: 1
# xstepsize: 2.5e-09
# ystepsize: 2.5e-09
# zstepsize: 5e-09
# End: Header
# Begin: Data Text
0 0 0 
0 0 0 
0 0 0 
0 0 0 
0 0 0 
0 0 0 
0 0 0 
0 0 0 
0 0 0 
0 0 0 
0 0 0 
0 0 0 
0 0 0 
0 0 0 
0 0 0 
0 0 0 
0 0 0 
0 0 0 
0 0 0 
0 0 0 
0 0 0 
0 0 0 
0 0 0 
0 0 0 
-0.9961014 0.06486868 0.05978459 
-0.99636245 0.06098005 0.059526473 
-0.9964442 0.05807051 0.06104745 
-0.99633473 0.056383327 0.06432886 
-0.99612385 0.054711163 0.0688767 
-0.9959282 0.05146269 0.074018255 
-0.995842 0.045137282 0.07912952 
-0.9958852 0.03468749 0.08372228 
-0.99596417 0.019668842 0.087569915 
-0.9958838 0.00032707083 0.09063846 
-0.99540365 -0.022489998 0.09309118 
-0.9943327 -0.047472008 0.09512648 
-0.99260205 -0.07308521 0.09695207 
-0.99030924 -0.09772763 0.09867594 
-0.98772955 -0.11965503 0.10036432 
-0.98546106 -0.13587643 0.10200134 
0 0 0 
0 0 0 
0 0 0 
0 0 0 
0 0 0 
0 0 0 
0 0 0 
0 0 0 
0 0 0 
0 0 0 
0 0 0 
0 0 0 
0 0 0 
0 0 0 
0 0 0 
0 0 0 
0 0 0 
0 0 0 
0 0 0 
0 0 0 
0 0 0 
0 0 0 
0 0 0 
0 0 0 
0 0 0 
0 0 0 
0 0 0 
0 0 0 
0 0 0 
0 0 0 
0 0 0 
0 0 0 
0 0 0 
0 0 0 
0 0 0 
0 0 0 
0 0 0 
0 0 0 
0 0 0 
0 0 0 
0 0 0 
0 0 0 
-0.99097455 0.095319524 0.09425295 
-0.99236614 0.08704835 0.08736241 
-0.9938199 0.07861875 0.07836577 
-0.99497175 0.07253929 0.06906124 
-0.9956725 0.07013387 0.0609712 
-0.99589497 0.07143737 0.055587508 
-0.99615306 0.06852154 0.05462637 
-0.99659973 0.061848596 0.05444001 
-0.9967734 0.057564557 0.055939108 
-0.9967256 0.05509356 0.05918485 
-0.996566 0.052880913 0.063717 
-0.9964106 0.04914636 0.068923816 
-0.9963467 0.042394605 0.07413559 
-0.9963828 0.031540085 0.07890896 
-0.9964245 0.016180944 0.08292489 
-0.9962733 -0.0034489396 0.08618365 
-0.9957031 -0.026466811 0.08874131 
-0.99452996 -0.05159246 0.090820506 
-0.99270433 -0.07732852 0.09251236 
-0.99031615 -0.10230092 0.09385425 
-0.9875961 -0.12537321 0.094528325 
-0.98494446 -0.1453691 0.09355379 
-0.98361003 -0.15738337 0.0879871 
-0.98339754 -0.16061911 0.084445246 
-0.98302466 -0.1645004 0.08125446 
-0.9822877 -0.17042446 0.07788789 
-0.98111814 -0.17847298 0.0745294 
-0.9796739 -0.18719196 0.0720988 
0 0 0 
0 0 0 
0 0 0 
0 0 0 
0 0 0 
0 0 0 
0 0 0 
0 0 0 
0 0 0 
0 0 0 
0 0 0 
0 0 0 
0 0 0 
0 0 0 
0 0 0 
0 0 0 
0 0 0 
0 0 0 
0 0 0 
0 0 0 
0 0 0 
0 0 0 
0 0 0 
0 0 0 
0 0 0 
0 0 0 
0 0 0 
0 0 0 
0 0 0 
0 0 0 
0 0 0 
0 0 0 
0 0 0 
-0.9880534 0.11491256 0.102692366 
-0.98886037 0.11132655 0.0988012 
-0.98952854 0.109401315 0.09415326 
-0.9907403 0.10165514 0.08999983 
-0.99252164 0.089608654 0.08289211 
-0.99410206 0.07930618 0.07397102 
-0.9953079 0.07191053 0.06473836 
-0.99611 0.06762475 0.056496333 
-0.99656516 0.06562123 0.050514303 
-0.9969286 0.062291488 0.04746849 
-0.9972652 0.057387423 0.046571303 
-0.9974307 0.05338687 0.047771145 
-0.9974232 0.05058968 0.050869465 
-0.9973205 0.04775733 0.055418547 
-0.9972098 0.043406263 0.060733054 
-0.997153 0.03605184 0.06622964 
-0.9971464 0.024765924 0.0713143 
-0.9970852 0.009135542 0.075747795 
-0.9967931 -0.010502372 0.079329856 
-0.9960602 -0.033296514 0.08219193 
-0.9947507 -0.0579086 0.08436703 
-0.99283946 -0.08289222 0.08601665 
-0.9904667 -0.10677332 0.087035194 
-0.98790205 -0.12822828 0.087219365 
-0.9856105 -0.14551121 0.08601493 
-0.9842215 -0.15626357 0.08300484 
-0.9836194 -0.16158712 0.079890914 
-0.9830983 -0.16631441 0.076532975 
-0.98231614 -0.17258035 0.07260271 
-0.9811147 -0.1811723 0.067754485 
-0.9796603 -0.19113359 0.0611039 
-0.9795005 -0.19538425 0.049030073 
-0.9795175 -0.19719437 0.04074038 
-0.9786347 -0.2024594 0.035839945 
0 0 0 
0 0 0 
0 0 0 
0 0 0 
0 0 0 
0 0 0 
0 0 0 
0 0 0 
0 0 0 
0 0 0 
0 0 0 
0 0 0 
0 0 0 
0 0 0 
0 0 0 
0 0 0 
0 0 0 
0 0 0 
0 0 0 
0 0 0 
0 0 0 
0 0 0 
0 0 0 
0 0 0 
0 0 0 
0 0 0 
0 0 0 
-0.988029 0.1191074 0.098042384 
-0.9885093 0.116993904 0.09571756 
-0.9884178 0.118783474 0.09445057 
-0.9884502 0.11755541 0.09564009 
-0.98940516 0.11129189 0.093228914 
-0.99041295 0.105684474 0.08895498 
-0.99169934 0.097723484 0.08356195 
-0.9932942 0.08699846 0.07614452 
-0.99478126 0.076677255 0.06731232 
-0.9959851 0.06817229 0.058019172 
-0.9968423 0.062038258 0.049564667 
-0.99742085 0.057534296 0.04291494 
-0.9978208 0.053386126 0.038777124 
-0.9981045 0.049095154 0.037108205 
-0.99824685 0.045509845 0.037842136 
-0.9982688 0.04244447 0.04071714 
-0.998213 0.039096367 0.045193136 
-0.9981341 0.034046464 0.050688297 
-0.99806273 0.026158288 0.056450956 
-0.9979695 0.014504814 0.06202149 
-0.99775946 -0.0011017574 0.06689499 
-0.99726826 -0.020368516 0.071001954 
-0.99634624 -0.042314183 0.074187614 
-0.99489355 -0.065691665 0.076625064 
-0.99295527 -0.08896471 0.078263976 
-0.99069077 -0.11073868 0.07917622 
-0.9884019 -0.12960085 0.07915518 
-0.98644066 -0.1443658 0.07805937 
-0.9851266 -0.15419929 0.075816706 
-0.9843618 -0.16036202 0.07291034 
-0.9837769 -0.16544724 0.06935572 
-0.98305494 -0.17142421 0.06493717 
-0.98209023 -0.17880128 0.059405785 
-0.9810276 -0.18667386 0.05232473 
-0.98037827 -0.19227853 0.043446563 
-0.9797015 -0.19733854 0.03525149 
-0.9786231 -0.20380127 0.027603056 
-0.9787837 -0.20413856 0.017602785 
-0.9790935 -0.20309335 0.011358184 
-0.97846985 -0.20623448 0.008002003 
0 0 0 
0 0 0 
0 0 0 
0 0 0 
0 0 0 
0 0 0 
0 0 0 
0 0 0 
0 0 0 
0 0 0 
0 0 0 
0 0 0 
0 0 0 
0 0 0 
0 0 0 
0 0 0 
0 0 0 
0 0 0 
0 0 0 
0 0 0 
0 0 0 
0 0 0 
-0.9875854 0.1273517 0.09196009 
-0.98781645 0.12675035 0.09029408 
-0.9881604 0.12333536 0.09125588 
-0.98897076 0.117532685 0.090127625 
-0.989412 0.11475343 0.08885691 
-0.9898577 0.11153186 0.08799113 
-0.99071395 0.10570832 0.08550869 
-0.99175274 0.09896316 0.08144306 
-0.99301517 0.09053685 0.07565794 
-0.99440724 0.08062429 0.06821997 
-0.9957502 0.070409134 0.05936487 
-0.99685866 0.061318032 0.05013057 
-0.9976984 0.053688772 0.041418664 
-0.99827397 0.047649406 0.03433064 
-0.99866325 0.042473674 0.029458512 
-0.9989046 0.038110677 0.027150404 
-0.99903476 0.034336783 0.027395546 
-0.99907225 0.030967819 0.029928083 
-0.9990475 0.02695506 0.03431416 
-0.9989786 0.021335525 0.03983052 
-0.9988618 0.012925438 0.045913693 
-0.99865574 0.0011810211 0.051821627 
-0.9982595 -0.014158659 0.057249304 
-0.99755996 -0.032553133 0.06176182 
-0.9964414 -0.053164896 0.065406255 
-0.9948893 -0.07461691 0.068027094 
-0.99297124 -0.095586605 0.069795966 
-0.9908961 -0.11462848 0.070606045 
-0.9889094 -0.13071239 0.07051632 
-0.9872891 -0.14298 0.06940481 
-0.98616385 -0.1514831 0.06733401 
-0.98547417 -0.15713188 0.06442205 
-0.98495513 -0.16181037 0.060670156 
-0.9843992 -0.16679557 0.056013096 
-0.98366827 -0.17282158 0.050295144 
-0.9828334 -0.17928618 0.043532174 
-0.98199385 -0.18547322 0.03588723 
-0.98108834 -0.191475 0.028338647 
-0.9801136 -0.19732045 0.021025572 
-0.9796241 -0.20036381 0.0138216 
-0.9792199 -0.20263441 0.008229975 
-0.9785928 -0.20576572 0.0040696533 
-0.9794707 -0.20158674 -0.00024304031 
-0.9803343 -0.1973305 -0.0023088008 
0 0 0 
0 0 0 
0 0 0 
0 0 0 
0 0 0 
0 0 0 
0 0 0 
0 0 0 
0 0 0 
0 0 0 
0 0 0 
0 0 0 
0 0 0 
0 0 0 
0 0 0 
0 0 0 
0 0 0 
0 0 0 
-0.9882202 0.12689587 0.08554786 
-0.988154 0.12841946 0.084024504 
-0.9880954 0.12815656 0.085108005 
-0.9888033 0.123249896 0.08412738 
-0.98950183 0.118029214 0.083398014 
-0.990285 0.112204164 0.08213329 
-0.99090475 0.10756834 0.080852024 
-0.99153966 0.10280811 0.07924393 
-0.99232775 0.09693425 0.07674302 
-0.9933154 0.089702636 0.07264937 
-0.9944396 0.08122689 0.06702404 
-0.9956639 0.07140726 0.059619457 
-0.9968109 0.06132064 0.051066164 
-0.99779075 0.051559355 0.041896664 
-0.9985202 0.043036647 0.033245485 
-0.9990286 0.03567289 0.025873695 
-0.9993468 0.02968237 0.02061646 
-0.9995387 0.024598803 0.017810559 
-0.99963665 0.020426892 0.017586457 
-0.99967057 0.016359927 0.019775877 
-0.9996454 0.011789371 0.02387658 
-0.9995529 0.0055096163 0.029389743 
-0.9993647 -0.0031387215 0.035503473 
-0.99901754 -0.014855611 0.041754644 
-0.99843836 -0.02949863 0.0474425 
-0.9975315 -0.04673353 0.052412927 
-0.9962655 -0.065480046 0.05627996 
-0.9946514 -0.084662236 0.0591692 
-0.9928305 -0.10284131 0.060920913 
-0.9909767 -0.11898282 0.06171233 
-0.9893337 -0.13207136 0.061449878 
-0.9880522 -0.1418604 0.060237333 
-0.98721874 -0.14841738 0.05806364 
-0.9867182 -0.15284418 0.055009264 
-0.9863925 -0.15626168 0.051109426 
-0.98602486 -0.16003117 0.04631616 
-0.98553056 -0.16453665 0.040710073 
-0.9848452 -0.17000708 0.034317 
-0.9840321 -0.17585057 0.027523518 
-0.9830622 -0.18209851 0.020709269 
-0.9820759 -0.18794143 0.014318107 
-0.9812386 -0.19261102 0.008473478 
-0.98059404 -0.19601245 0.0038044807 
-0.9802045 -0.19798805 0.00017178673 
-0.98067206 -0.19563994 -0.002723719 
-0.98172003 -0.19027123 -0.0047610095 
-0.9845946 -0.17472129 -0.0067882976 
-0.9865998 -0.16297784 -0.0076960158 
0 0 0 
0 0 0 
0 0 0 
0 0 0 
0 0 0 
0 0 0 
0 0 0 
0 0 0 
0 0 0 
0 0 0 
0 0 0 
0 0 0 
0 0 0 
0 0 0 
-0.99017066 0.11567049 0.07862836 
-0.98969704 0.12053197 0.077278465 
-0.9890836 0.12465705 0.07857689 
-0.98939437 0.122681506 0.07776937 
-0.9898519 0.11951171 0.07687748 
-0.99055594 0.11440062 0.07557492 
-0.99131024 0.10866709 0.07413184 
-0.9920114 0.103017956 0.07280531 
-0.9926636 0.0976439 0.071306996 
-0.99328804 0.09231618 0.06969013 
-0.99403316 0.086005196 0.0670908 
-0.9948831 0.0786907 0.0633669 
-0.995871 0.069899105 0.057923954 
-0.99688005 0.060176373 0.051078897 
-0.9978432 0.049704768 0.04287828 
-0.99862933 0.039577894 0.034249898 
-0.99921596 0.0300279 0.025802067 
-0.9995891 0.02182619 0.01858064 
-0.9998052 0.014714488 0.013155623 
-0.99990916 0.00895958 0.010075383 
-0.99994755 0.0038748363 0.009481373 
-0.9999367 -0.0007949574 0.011229705 
-0.99986804 -0.0061678817 0.015033768 
-0.9997136 -0.012810125 0.020215677 
-0.9994183 -0.021701965 0.026308037 
-0.9989286 -0.032970916 0.032474864 
-0.99816704 -0.046782065 0.038393386 
-0.9971066 -0.06239609 0.043418765 
-0.9957314 -0.079119466 0.047531415 
-0.9941405 -0.0956323 0.050391 
-0.9924518 -0.11097965 0.052182257 
-0.9908805 -0.12398152 0.052767705 
-0.9895713 -0.13419738 0.052342616 
-0.9886672 -0.14124231 0.050870873 
-0.9881391 -0.14570844 0.048479185 
-0.98792154 -0.14821021 0.045221146 
-0.98781234 -0.15011601 0.041134465 
-0.98768723 -0.15216382 0.036336366 
-0.987384 -0.15531266 0.03083412 
-0.98689014 -0.15945975 0.024910066 
-0.98614913 -0.16480356 0.018705782 
-0.98524886 -0.17065392 0.012722959 
-0.9842344 -0.17672583 0.0071270745 
-0.98332256 -0.18185544 0.0023484947 
-0.98259884 -0.18573447 -0.0015217524 
-0.98231834 -0.18716855 -0.004309184 
-0.98270184 -0.18508746 -0.006318681 
-0.98386204 -0.17877017 -0.0075360048 
-0.98589057 -0.16718143 -0.008384621 
-0.9880103 -0.15414461 -0.008671942 
-0.991058 -0.13314289 -0.00877325 
-0.99293107 -0.1183869 -0.008518595 
0 0 0 
0 0 0 
0 0 0 
0 0 0 
0 0 0 
0 0 0 
0 0 0 
0 0 0 
0 0 0 
0 0 0 
0 0 0 
-0.9914046 0.10923702 0.07200211 
-0.9909211 0.113184 0.07255929 
-0.99096364 0.113542 0.07140921 
-0.9910205 0.113581434 0.070553154 
-0.99142754 0.11094745 0.06900852 
-0.9919704 0.107031934 0.06737157 
-0.9926315 0.101959944 0.06547474 
-0.99327105 0.09661726 0.063858055 
-0.99389386 0.09110177 0.06225386 
-0.99444467 0.08582088 0.060947146 
-0.9950264 0.08007155 0.05925416 
-0.99564254 0.07372053 0.05710812 
-0.99637693 0.065986566 0.05365565 
-0.9971612 0.05716983 0.049002036 
-0.9979811 0.046979744 0.042740118 
-0.99870867 0.036339864 0.035502877 
-0.99929816 0.025399076 0.027534626 
-0.9996867 0.015253079 0.019844519 
-0.9998984 0.005888931 0.012985318 
-0.99996775 -0.001993789 0.0077877967 
-0.9999498 -0.008890039 0.004624947 
-0.99988544 -0.014670907 0.0037422243 
-0.9997805 -0.020315882 0.0051260917 
-0.99962264 -0.026156344 0.008391042 
-0.99935794 -0.033302072 0.013219611 
-0.9989407 -0.04198811 0.018831493 
-0.9982954 -0.05280372 0.024859345 
-0.99739856 -0.06531995 0.030488221 
-0.9962171 -0.0792965 0.035548978 
-0.99482524 -0.09362361 0.039465174 
-0.99329704 -0.107560195 0.042331755 
-0.99182236 -0.1198508 0.043864634 
-0.99053025 -0.12995394 0.044292185 
-0.9895956 -0.13713486 0.043527983 
-0.9890355 -0.14164586 0.0417765 
-0.98886067 -0.14362328 0.039075803 
-0.9889107 -0.14419551 0.035543244 
-0.98907703 -0.14403513 0.031314846 
-0.9891576 -0.14446037 0.026428387 
-0.98908925 -0.14579363 0.02113907 
-0.98874885 -0.14878058 0.015495222 
-0.98817974 -0.15297891 0.009917609 
-0.98735416 -0.15846653 0.004509924 
-0.98643625 -0.16414437 -0.00024458356 
-0.9855116 -0.16955365 -0.004313777 
-0.9848384 -0.17331997 -0.0073148427 
-0.984563 -0.17477727 -0.009418929 
-0.98494554 -0.17254534 -0.010511969 
-0.98599666 -0.16640674 -0.010924306 
-0.9876836 -0.15610105 -0.01066819 
-0.9896248 -0.14332858 -0.0099845715 
-0.99170184 -0.12825477 -0.008853143 
-0.99309826 -0.11705677 -0.007329279 
-0.99418205 -0.107584566 -0.00527022 
0 0 0 
0 0 0 
0 0 0 
0 0 0 
0 0 0 
0 0 0 
0 0 0 
0 0 0 
0 0 0 
-0.9939703 0.0872421 0.06642331 
-0.99300724 0.09756499 0.06646628 
-0.9928599 0.09982633 0.06529942 
-0.9929998 0.09960877 0.06347978 
-0.99326783 0.09824974 0.0613694 
-0.9936642 0.09555903 0.059160035 
-0.9941711 0.09168787 0.056721505 
-0.9946893 0.08725808 0.054583956 
-0.9952178 0.082340494 0.05255211 
-0.99568236 0.0774835 0.051118877 
-0.9961475 0.07223055 0.04972849 
-0.9965915 0.066698655 0.04854524 
-0.99710774 0.059989575 0.046663586 
-0.9976576 0.052274834 0.044121154 
-0.9982714 0.042908493 0.040163226 
-0.9988501 0.032594506 0.035158176 
-0.99935734 0.02118901 0.02891258 
-0.9997042 0.009850237 0.022240292 
-0.9998796 -0.0013794316 0.0154560525 
-0.9998899 -0.011421825 0.009471801 
-0.99977785 -0.020544304 0.0047129616 
-0.99960154 -0.028174091 0.0017282361 
-0.99938387 -0.035092644 0.00072595425 
-0.999146 -0.041287 0.001669658 
-0.9988438 -0.047866035 0.0044712857 
-0.99844915 -0.05500784 0.008572574 
-0.9978809 -0.06360798 0.0137075065 
-0.9971162 -0.07345923 0.019056631 
-0.99610126 -0.0847787 0.024391692 
-0.99489135 -0.09671211 0.028950691 
-0.9935202 -0.10884666 0.03271195 
-0.9921547 -0.11996481 0.035178475 
-0.9908992 -0.12955391 0.036533482 
-0.989948 -0.13662443 0.03656195 
-0.9893458 -0.1411866 0.03551401 
-0.98916787 -0.14294444 0.03337548 
-0.98929614 -0.14273247 0.03034173 
-0.9896625 -0.14093883 0.026541358 
-0.9900552 -0.13893735 0.022073107 
-0.9903915 -0.13721995 0.017187389 
-0.9904994 -0.13700032 0.011915662 
-0.99037987 -0.13821574 0.006637567 
-0.98994595 -0.14143987 0.0013753467 
-0.9893037 -0.14583124 -0.0033862286 
-0.98846686 -0.15124404 -0.0076518506 
-0.98766357 -0.1562078 -0.010948014 
-0.9870055 -0.1601277 -0.013392794 
-0.98677933 -0.16140477 -0.014669465 
-0.98707604 -0.15954141 -0.015082242 
-0.98801243 -0.15369256 -0.014493299 
-0.9894237 -0.14444615 -0.013272381 
-0.99109626 -0.13266636 -0.01130767 
-0.9927049 -0.12024588 -0.008834545 
-0.99391925 -0.10996705 -0.0056412583 
-0.9947575 -0.102247804 -0.001724577 
-0.99571186 -0.09245614 0.0031556862 
0 0 0 
0 0 0 
0 0 0 
0 0 0 
0 0 0 
0 0 0 
0 0 0 
-0.99636006 0.05519147 0.064966924 
-0.9955052 0.07066691 0.06305285 
-0.9951191 0.07788428 0.06059779 
-0.9950566 0.080687694 0.05789625 
-0.99520606 0.08098011 0.05483868 
-0.9954538 0.07991435 0.05182187 
-0.99580276 0.07755204 0.048605923 
-0.9961752 0.07446066 0.045724273 
-0.9965764 0.070637114 0.042965483 
-0.99693215 0.06669044 0.040974192 
-0.9972858 0.062252846 0.03931666 
-0.9975985 0.05764561 0.038396783 
-0.99794614 0.052017756 0.037385713 
-0.9982985 0.045545965 0.03640995 
-0.99870604 0.037344232 0.034523223 
-0.9990992 0.027946625 0.031933498 
-0.999464 0.016879681 0.028050765 
-0.99971145 0.0052139345 0.023448678 
-0.9998112 -0.0071377163 0.018077035 
-0.9997403 -0.01888433 0.0127618965 
-0.9995151 -0.030151527 0.0077855457 
-0.9991947 -0.03994063 0.0038463806 
-0.9988079 -0.048799455 0.0012342313 
-0.9984143 -0.056293562 0.00021132399 
-0.9979869 -0.06341527 0.0008912841 
-0.9975329 -0.070136 0.0030168488 
-0.99697 -0.077515 0.0065118703 
-0.99628574 -0.08543983 0.010716196 
-0.9954019 -0.094528966 0.015471356 
-0.9943589 -0.10417212 0.019965664 
-0.9931472 -0.114354804 0.024120033 
-0.99190897 -0.12399304 0.027246274 
-0.99071366 -0.13273832 0.029444722 
-0.989763 -0.13946573 0.03030571 
-0.9891128 -0.14405541 0.030064655 
-0.9888948 -0.1458421 0.028588146 
-0.98903173 -0.14537533 0.026122324 
-0.98951 -0.14266264 0.02274601 
-0.99012566 -0.1389401 0.018627176 
-0.99079853 -0.13461898 0.014004064 
-0.99132055 -0.1311627 0.008942013 
-0.99166495 -0.12878741 0.0038060274 
-0.991698 -0.12858115 -0.0014164395 
-0.99148405 -0.13007791 -0.006254723 
-0.9909721 -0.13363521 -0.010765331 
-0.9903292 -0.1379858 -0.014423502 
-0.9896025 -0.14277919 -0.017350245 
-0.9890594 -0.14627938 -0.019074269 
-0.9888032 -0.14789934 -0.019849585 
-0.9890651 -0.14620271 -0.019364422 
-0.9898139 -0.14122434 -0.018002175 
-0.9910205 -0.13280047 -0.015570988 
-0.99241644 -0.122291915 -0.012425911 
-0.99378204 -0.11103005 -0.008349583 
-0.9948623 -0.1011777 -0.003497359 
-0.99562997 -0.09335511 0.0024326395 
-0.9961895 -0.086702056 0.009449618 
-0.99684167 -0.07742773 0.017651567 
0 0 0 
0 0 0 
0 0 0 
0 0 0 
0 0 0 
-0.9974611 0.018665694 0.068725266 
-0.9972407 0.0371476 0.064273626 
-0.99704707 0.04840032 0.0596217 
-0.99694806 0.055234365 0.05516984 
-0.9969859 0.05870543 0.05072274 
-0.99711806 0.05995929 0.046481796 
-0.99733657 0.059514925 0.04216371 
-0.99758047 0.058062468 0.038237862 
-0.9978554 0.055657398 0.034451682 
-0.99809974 0.052953843 0.03150747 
-0.9983434 0.049661722 0.029057583 
-0.9985463 0.046229906 0.02771431 
-0.9987641 0.041873634 0.0267777 
-0.9989684 0.03683698 0.026553625 
-0.99920714 0.030103603 0.026056485 
-0.99943155 0.022095857 0.025465377 
-0.99964154 0.012047176 0.023908403 
-0.9997628 0.00088523346 0.021764738 
-0.9997584 -0.011711481 0.018603075 
-0.9995886 -0.024398599 0.015078329 
-0.99924165 -0.03729402 0.011192186 
-0.9987657 -0.0490788 0.0076430636 
-0.99818176 -0.06009689 0.0046364907 
-0.9975803 -0.06947575 0.0026141033 
-0.99695104 -0.07801025 0.0017786352 
-0.99634904 -0.08534622 0.0021498064 
-0.99569994 -0.09255839 0.0038325128 
-0.99501836 -0.09948527 0.0064195194 
-0.9942059 -0.10703532 0.009912087 
-0.99329764 -0.114781685 0.013604349 
-0.9922386 -0.12311605 0.017466735 
-0.9911462 -0.13114744 0.020727469 
-0.99004287 -0.13880199 0.02343717 
-0.9891244 -0.14494236 0.024993261 
-0.98843855 -0.14944951 0.025575487 
-0.98816156 -0.1513883 0.024868391 
-0.98825103 -0.15108052 0.02312106 
-0.9887583 -0.1481384 0.02029819 
-0.98950213 -0.14355996 0.016618833 
-0.99042594 -0.13749894 0.012273124 
-0.9912963 -0.13144286 0.0073824986 
-0.9920674 -0.12568672 0.0022990394 
-0.9925633 -0.1216933 -0.0029740755 
-0.9928206 -0.11934669 -0.007973849 
-0.99274445 -0.119561635 -0.012790112 
-0.99245477 -0.12144456 -0.016877564 
-0.991933 -0.1251144 -0.020384206 
-0.99139094 -0.12894629 -0.022738125 
-0.9908908 -0.13248181 -0.02416763 
-0.9906944 -0.13393895 -0.024186712 
-0.9908472 -0.1329877 -0.023155337 
-0.99147624 -0.12862664 -0.020739686 
-0.9924414 -0.12148295 -0.017373966 
-0.99362797 -0.111981384 -0.012797223 
-0.9947773 -0.10180513 -0.0073438506 
-0.9957404 -0.092198856 -0.0007122603 
-0.9964127 -0.084341995 0.0069512706 
-0.99681944 -0.07809087 0.015905136 
-0.9970325 -0.07247099 0.025963046 
-0.99728394 -0.06378425 0.036830664 
0 0 0 
0 0 0 
0 0 0 
-0.99692965 -0.017395046 0.076345704 
-0.997534 0.002474563 0.07014244 
-0.9978669 0.015986914 0.06329484 
-0.99806273 0.025726337 0.056647632 
-0.998215 0.03227864 0.050249375 
-0.9983595 0.03626201 0.04431154 
-0.99853384 0.03805883 0.03849361 
-0.99871016 0.038433917 0.0331796 
-0.9988998 0.037577644 0.028056879 
-0.9990599 0.036229048 0.023807935 
-0.9992118 0.034219153 0.020122312 
-0.9993269 0.032105263 0.017750992 
-0.99944377 0.029189903 0.016131718 
-0.99954313 0.025782593 0.015772883 
-0.9996593 0.020808043 0.01575789 
-0.9997596 0.014613187 0.016345525 
-0.9998444 0.0061919517 0.01652224 
-0.99985605 -0.0036877445 0.016564462 
-0.99975425 -0.015620563 0.015728876 
-0.9994937 -0.02832456 0.014497919 
-0.9990376 -0.04202889 0.012546232 
-0.99841857 -0.055233676 0.01047767 
-0.9976398 -0.06816393 0.00828559 
-0.9968089 -0.07956276 0.006463891 
-0.9959283 -0.09000183 0.0051610363 
-0.9951031 -0.098735854 0.004580509 
-0.99427617 -0.10672809 0.004914887 
-0.9935051 -0.11362875 0.006006675 
-0.992682 -0.12049197 0.008022291 
-0.9918513 -0.12697075 0.010464037 
-0.9909163 -0.13380712 0.013440268 
-0.9899741 -0.14031292 0.016236935 
-0.98899174 -0.14675328 0.018941678 
-0.98814756 -0.15208648 0.020839354 
-0.9874599 -0.15632032 0.022070497 
-0.9871314 -0.15837356 0.022123704 
-0.9871411 -0.15843767 0.021212539 
-0.98760635 -0.15578164 0.019126268 
-0.9883805 -0.15114537 0.01609609 
-0.98945385 -0.1443338 0.012204068 
-0.99058455 -0.13669005 0.0076205395 
-0.99172026 -0.12838958 0.002655142 
-0.9926417 -0.121060036 -0.0026431787 
-0.99335915 -0.114789575 -0.0078184195 
-0.9937404 -0.11096097 -0.012957093 
-0.9938785 -0.109083414 -0.01750597 
-0.9937128 -0.10984857 -0.021640355 
-0.993405 -0.11195971 -0.0247327 
-0.9929594 -0.115334705 -0.027011432 
-0.99260575 -0.118144825 -0.027850153 
-0.9923931 -0.11998252 -0.027574675 
-0.99253005 -0.119267404 -0.025681965 
-0.992983 -0.11607297 -0.022625465 
-0.9937774 -0.10991183 -0.018051082 
-0.9947212 -0.1018599 -0.012430145 
-0.9956854 -0.09263346 -0.0054544294 
-0.9964798 -0.083795 0.0025396335 
-0.9970288 -0.076114625 0.011841282 
-0.9972885 -0.07016639 0.022186408 
-0.9972952 -0.06538689 0.033569857 
-0.99715227 -0.06025922 0.04534735 
-0.99712497 -0.05043895 0.056549545 
0 0 0 
0 0 0 
-0.99673676 -0.021201206 0.07788721 
-0.9974143 -0.012329996 0.070800364 
-0.9980446 -0.0028527642 0.062441267 
-0.99852735 0.005074938 0.05401418 
-0.9988775 0.010989089 0.04607596 
-0.99915266 0.014735086 0.03842917 
-0.9993655 0.016785678 0.031414013 
-0.999545 0.017337475 0.024685618 
-0.99967486 0.017171804 0.018852178 
-0.999775 0.016281122 0.0136041 
-0.99983484 0.015340371 0.009744708 
-0.9998815 0.013797346 0.006827389 
-0.9999123 0.012033432 0.005536048 
-0.9999469 0.008974944 0.005084387 
-0.99997073 0.004906058 0.00587324 
-0.99997556 -0.0013669035 0.006872844 
-0.99992234 -0.009252047 0.00835238 
-0.99976355 -0.01962537 0.009366288 
-0.99945563 -0.03135117 0.010276511 
-0.9989387 -0.044855203 0.010464555 
-0.9982275 -0.058595408 0.010415076 
-0.9972994 -0.07278048 0.009853991 
-0.9962631 -0.08587536 0.009240758 
-0.99512434 -0.098257385 0.008552849 
-0.9940321 -0.10879 0.008070969 
-0.9929532 -0.11824097 0.00794454 
-0.9920004 -0.1259685 0.008193854 
-0.9910717 -0.1330209 0.009070769 
-0.99023825 -0.13900425 0.010301213 
-0.98937184 -0.14489911 0.012148599 
-0.9885592 -0.15017691 0.0140643045 
-0.9877106 -0.155446 0.016257899 
-0.9869796 -0.15983263 0.018027125 
-0.9863379 -0.16357161 0.01954149 
-0.98599267 -0.16556719 0.020152312 
-0.9859228 -0.16599591 0.02004175 
-0.9863006 -0.16388333 0.01880028 
-0.9870166 -0.15975447 0.016635975 
-0.9881256 -0.15305741 0.013461237 
-0.98940116 -0.14489976 0.009464107 
-0.9908069 -0.13519725 0.004856591 
-0.99208826 -0.12554206 -0.00026495592 
-0.9932296 -0.11603865 -0.005477399 
-0.9940535 -0.10835361 -0.010831013 
-0.9946283 -0.10230185 -0.015775638 
-0.9948659 -0.09910662 -0.020491766 
-0.99489987 -0.097889416 -0.024329022 
-0.9946965 -0.099101 -0.027529562 
-0.9944389 -0.101135835 -0.029374903 
-0.99414045 -0.1038023 -0.030164702 
-0.9940137 -0.10527173 -0.029232344 
-0.99406976 -0.10533731 -0.027006919 
-0.9944373 -0.10279104 -0.022992376 
-0.99501646 -0.098121546 -0.017733265 
-0.9957653 -0.09128716 -0.010874617 
-0.9964977 -0.083569095 -0.002923195 
-0.997109 -0.07571306 0.006427311 
-0.99747896 -0.0689507 0.016783541 
-0.99756837 -0.06369627 0.028289696 
-0.9973708 -0.060166072 0.040394135 
-0.9969475 -0.05782991 0.05245479 
-0.99647003 -0.056347728 0.062228557 
0 0 0 
-0.9948137 -0.049108155 0.08907469 
-0.99613494 -0.03391672 0.08102453 
-0.99709135 -0.02602585 0.07163439 
-0.9979237 -0.018795025 0.061605755 
-0.9985808 -0.012499142 0.051769465 
-0.99907833 -0.0078071854 0.04220987 
-0.9994332 -0.0047272067 0.03333145 
-0.9996862 -0.0032578986 0.024838941 
-0.9998474 -0.0027149876 0.01726041 
-0.99994284 -0.002972087 0.010275946 
-0.99998397 -0.003242726 0.004661554 
-0.99999255 -0.0038621651 4.8798156e-05 
-0.9999868 -0.0043394635 -0.0027648993 
-0.9999743 -0.005657144 -0.0044141365 
-0.99996203 -0.0075694085 -0.0043396866 
-0.999929 -0.011396595 -0.003492967 
-0.99985874 -0.01673934 -0.0015406668 
-0.99969363 -0.024749668 0.00048472866 
-0.99940014 -0.03451343 0.0028914677 
-0.9988965 -0.04671471 0.0048478786 
-0.9981818 -0.059898008 0.006743124 
-0.9971991 -0.07435852 0.008052131 
-0.99604154 -0.08841473 0.009169896 
-0.994703 -0.10231781 0.009849787 
-0.99335766 -0.11459909 0.010372419 
-0.9919974 -0.12580068 0.010736215 
-0.99079263 -0.13493694 0.01104444 
-0.9896668 -0.14292288 0.011514048 
-0.98873436 -0.14919615 0.012038332 
-0.987856 -0.15483017 0.012969883 
-0.9871208 -0.15936638 0.013959069 
-0.98639125 -0.1636957 0.015364291 
-0.9857944 -0.16713327 0.016608443 
-0.98524606 -0.17019819 0.01796912 
-0.9849365 -0.17189495 0.018770618 
-0.98482215 -0.17249937 0.01921758 
-0.9851062 -0.1709225 0.018742282 
-0.98570645 -0.1675577 0.017526563 
-0.9867452 -0.16155621 0.015282092 
-0.9880315 -0.15377073 0.012181932 
-0.9895728 -0.1437955 0.008277645 
-0.9911034 -0.13304336 0.0036891513 
-0.9925943 -0.1214704 -0.0012450168 
-0.9938191 -0.11081999 -0.006530144 
-0.9948134 -0.10104894 -0.011643803 
-0.99545395 -0.09376024 -0.016745182 
-0.9958551 -0.08845234 -0.021186326 
-0.99596524 -0.08612405 -0.025220305 
-0.9959382 -0.0855487 -0.028084174 
-0.99575764 -0.08696383 -0.030069059 
-0.9956035 -0.08860554 -0.030378284 
-0.9954814 -0.09029288 -0.029396513 
-0.99555475 -0.090391435 -0.026460249 
-0.99578714 -0.08898737 -0.02211862 
-0.99622685 -0.08531599 -0.015917318 
-0.99674314 -0.08019514 -0.00848327 
-0.9972661 -0.07389171 0.0005159397 
-0.9976519 -0.06767353 0.01053993 
-0.99782676 -0.062168803 0.021836717 
-0.99772555 -0.05825395 0.033915814 
-0.99733305 -0.056075033 0.046715524 
-0.99667925 -0.055600777 0.059489295 
-0.99587405 -0.05572899 0.07161809 
-0.99530286 -0.049455024 0.08322621 
-0.9945661 -0.052603364 0.08984024 
-0.99564826 -0.044338066 0.08196828 
-0.9967345 -0.03734768 0.07159219 
-0.9976713 -0.031479392 0.06050686 
-0.9984218 -0.026835527 0.04933421 
-0.99897337 -0.023569461 0.03868942 
-0.99935573 -0.02187505 0.028454624 
-0.99959075 -0.021276603 0.01912573 
-0.9997127 -0.021593867 0.010402821 
-0.99975413 -0.021972306 0.0029812292 
-0.9997413 -0.022482153 -0.0034656553 
-0.9997147 -0.022470519 -0.008108452 
-0.99967676 -0.022703838 -0.011442349 
-0.99965596 -0.022907356 -0.012773251 
-0.9996183 -0.024424037 -0.0129132 
-0.99956924 -0.027035918 -0.011424254 
-0.99943984 -0.0321421 -0.00932441 
-0.9992149 -0.039115664 -0.006301657 
-0.9987959 -0.048947472 -0.0033085968 
-0.99817467 -0.06039447 -1.0955485e-05 
-0.9972589 -0.07393612 0.0028749648 
-0.9961138 -0.087892145 0.005691402 
-0.9947031 -0.102480195 0.007979444 
-0.99319863 -0.116002955 0.009991424 
-0.99160403 -0.12879694 0.011524233 
-0.99013525 -0.13953851 0.012693177 
-0.9887552 -0.14892602 0.013574174 
-0.9876339 -0.15613896 0.014142391 
-0.9866491 -0.16219369 0.014727075 
-0.9859102 -0.16658972 0.015137247 
-0.9852508 -0.17038317 0.015829755 
-0.9847776 -0.17304358 0.016403094 
-0.9843513 -0.1753682 0.017280562 
-0.9841309 -0.17654155 0.017873041 
-0.9840319 -0.17703015 0.018482672 
-0.9842584 -0.17576708 0.018479079 
-0.9847353 -0.17311901 0.018061824 
-0.9856364 -0.16804689 0.01676643 
-0.98681396 -0.16118601 0.014744783 
-0.9883369 -0.15182169 0.011848591 
-0.9899601 -0.14110993 0.008190673 
-0.9916683 -0.12875691 0.003961536 
-0.9932018 -0.116402976 -0.00081609894 
-0.99456304 -0.10398067 -0.005695836 
-0.995582 -0.09327318 -0.010802836 
-0.99634236 -0.084029324 -0.015522051 
-0.9967749 -0.07768894 -0.020103596 
-0.997017 -0.073427126 -0.023785217 
-0.9970438 -0.071987085 -0.026860988 
-0.9970067 -0.07188676 -0.028458875 
-0.99689645 -0.07321969 -0.028921828 
-0.9968631 -0.074241795 -0.027427282 
-0.99689084 -0.074896924 -0.024475737 
-0.9970761 -0.07389549 -0.019465577 
-0.99734503 -0.071639664 -0.013069905 
-0.9976872 -0.06779524 -0.004898496 
-0.9979805 -0.063371755 0.0043699737 
-0.99815774 -0.058782425 0.015031385 
-0.9981283 -0.05510419 0.026525108 
-0.9978475 -0.052721724 0.03899858 
-0.9972985 -0.052024614 0.0518586 
-0.9965129 -0.052565537 0.06479936 
-0.99563396 -0.053098843 0.07677061 
-0.9949599 -0.051415533 0.08608861 
-0.994482 -0.054182813 0.0898325 
-0.9954187 -0.049733546 0.08165964 
-0.9964911 -0.044876494 0.070652165 
-0.9974461 -0.040798396 0.05862437 
-0.99819297 -0.03788974 0.0466385 
-0.99872404 -0.036490675 0.034910478 
-0.9990505 -0.03636486 0.023997685 
-0.999208 -0.037360813 0.013694173 
-0.9992428 -0.038636506 0.0046065752 
-0.99919343 -0.039998736 -0.0035663887 
-0.9991251 -0.040597044 -0.010044845 
-0.9990493 -0.04085334 -0.015220597 
-0.99901766 -0.04035017 -0.018323656 
-0.9989878 -0.040289976 -0.020001868 
-0.9989828 -0.0405612 -0.019703167 
-0.9989185 -0.042723004 -0.018349415 
-0.9987985 -0.046464175 -0.015583843 
-0.99851215 -0.053103138 -0.012391504 
-0.9980572 -0.06172767 -0.008459091 
-0.9973142 -0.073096745 -0.0046213223 
-0.99632174 -0.08568978 -0.00056475 
-0.99500245 -0.09980307 0.0030920918 
-0.99349916 -0.11364933 0.006583979 
-0.9918029 -0.12742293 0.009516185 
-0.99014646 -0.13952152 0.011991216 
-0.9885285 -0.15039489 0.013889327 
-0.98717433 -0.1589207 0.015199927 
-0.98600465 -0.1659367 0.016120605 