# OOMMF OVF 2.0
# Segment count: 1
# Begin: Segment
# Begin: Header
# Title: m
# meshtype: rectangular
# meshunit: m
# xmin: 0
# ymin: 0
# zmin: 0
# xmax: 1.6e-07
# ymax: 8e-08
# zmax: 5e-09
# valuedim: 3
# valuelabels: m_x m_y m_z
# valueunits: 1 1 1
# Desc: Total simulation time:  9.001961391262629e-10  s
# xbase: 1.25e-09
# ybase: 1.25e-09
# zbase: 2.5e-09
# xnodes: 64
# ynodes: 32
# znodes: 1
# xstepsize: 2.5e-09
# ystepsize: 2.5e-09
# zstepsize: 5e-09
# End: Header
# Begin: Data Text
0 0 0 
0 0 0 
0 0 0 
0 0 0 
0 0 0 
0 0 0 
0 0 0 
0 0 0 
0 0 0 
0 0 0 
0 0 0 
0 0 0 
0 0 0 
0 0 0 
0 0 0 
0 0 0 
0 0 0 
0 0 0 
0 0 0 
0 0 0 
0 0 0 
0 0 0 
0 0 0 
0 0 0 
-0.97589874 0.21383627 -0.043540344 
-0.97292733 0.22585635 -0.049004465 
-0.9680941 0.24434686 -0.055575255 
-0.9624098 0.26459008 -0.061314866 
-0.95676696 0.28349867 -0.06500488 
-0.95198846 0.29896194 -0.0658783 
-0.9486899 0.30981135 -0.06328001 
-0.9471793 0.31559014 -0.0570451 
-0.94737947 0.31660226 -0.0472798 
-0.9489322 0.31355664 -0.034786798 
-0.9512972 0.30757654 -0.0207461 
-0.9539838 0.29977667 -0.006996319 
-0.9566111 0.29133284 0.0045228074 
-0.9589874 0.2832014 0.011844075 
-0.960883 0.27660206 0.0139696095 
-0.96180046 0.2734932 0.01189006 
0 0 0 
0 0 0 
0 0 0 
0 0 0 
0 0 0 
0 0 0 
0 0 0 
0 0 0 
0 0 0 
0 0 0 
0 0 0 
0 0 0 
0 0 0 
0 0 0 
0 0 0 
0 0 0 
0 0 0 
0 0 0 
0 0 0 
0 0 0 
0 0 0 
0 0 0 
0 0 0 
0 0 0 
0 0 0 
0 0 0 
0 0 0 
0 0 0 
0 0 0 
0 0 0 
0 0 0 
0 0 0 
0 0 0 
0 0 0 
0 0 0 
0 0 0 
0 0 0 
0 0 0 
0 0 0 
0 0 0 
0 0 0 
0 0 0 
-0.9955418 0.08314623 0.044533595 
-0.99636763 0.076354 0.037706118 
-0.996736 0.075438686 0.02874646 
-0.99620897 0.08499175 0.01855312 
-0.99420595 0.10728141 0.0067268005 
-0.989651 0.143284 -0.007779311 
-0.9819278 0.18731816 -0.02701584 
-0.9765828 0.2117078 -0.038286265 
-0.97114 0.23384011 -0.046966214 
-0.96534896 0.25537017 -0.05373609 
-0.95972115 0.2748099 -0.05843625 
-0.95491916 0.29068792 -0.060250193 
-0.9515345 0.30186006 -0.05884511 
-0.9498402 0.308094 -0.05368297 
-0.94982207 0.30951816 -0.045129254 
-0.95110536 0.30703732 -0.0335657 
-0.9532421 0.30151358 -0.02046857 
-0.9557167 0.29419705 -0.007334532 
-0.9582867 0.2857879 0.0034677207 
-0.9608588 0.27686074 0.009933036 
-0.963748 0.2666366 0.009742795 
-0.96759117 0.25252113 0.00071187585 
-0.9728598 0.23024908 -0.023004593 
-0.9735536 0.22275002 -0.05075379 
-0.9724705 0.21862596 -0.08064675 
-0.9706376 0.21429111 -0.10927933 
-0.96887004 0.20883007 -0.13296962 
-0.9676542 0.20423238 -0.14810301 
0 0 0 
0 0 0 
0 0 0 
0 0 0 
0 0 0 
0 0 0 
0 0 0 
0 0 0 
0 0 0 
0 0 0 
0 0 0 
0 0 0 
0 0 0 
0 0 0 
0 0 0 
0 0 0 
0 0 0 
0 0 0 
0 0 0 
0 0 0 
0 0 0 
0 0 0 
0 0 0 
0 0 0 
0 0 0 
0 0 0 
0 0 0 
0 0 0 
0 0 0 
0 0 0 
0 0 0 
0 0 0 
0 0 0 
-0.9855614 0.15161316 0.07538047 
-0.98833513 0.13483642 0.07080207 
-0.9910794 0.117606625 0.06269252 
-0.99402076 0.096366085 0.05134528 
-0.9958355 0.08081106 0.042204954 
-0.9965968 0.07544134 0.033219304 
-0.996392 0.08146986 0.02378481 
-0.9949645 0.09933309 0.013370562 
-0.9918432 0.12745738 0.0013325219 
-0.9870653 0.159867 -0.012026774 
-0.98212916 0.18675068 -0.023379156 
-0.9769332 0.21099167 -0.032928027 
-0.9715151 0.23339003 -0.041078776 
-0.9662389 0.2532911 -0.0471813 
-0.9616806 0.2693985 -0.05094138 
-0.9583149 0.28106079 -0.051357385 
-0.9564658 0.28780589 -0.048385046 
-0.95607436 0.29015997 -0.041581355 
-0.95691645 0.28860927 -0.031868644 
-0.9584985 0.28439838 -0.019957637 
-0.9604854 0.27821574 -0.007991573 
-0.9625554 0.2710759 0.002222881 
-0.96478957 0.26290447 0.007899386 
-0.96729505 0.25355652 0.007030471 
-0.9702728 0.24199903 -0.0026755386 
-0.97301584 0.2296782 -0.02209247 
-0.9737315 0.22268301 -0.04753218 
-0.9730395 0.21788755 -0.075625286 
-0.9719206 0.21167699 -0.102778025 
-0.9714747 0.20144978 -0.1251193 
-0.973121 0.18359716 -0.1390243 
-0.9778996 0.15459104 -0.14076276 
-0.9806281 0.13754354 -0.13946441 
-0.9824734 0.12613495 -0.13724439 
0 0 0 
0 0 0 
0 0 0 
0 0 0 
0 0 0 
0 0 0 
0 0 0 
0 0 0 
0 0 0 
0 0 0 
0 0 0 
0 0 0 
0 0 0 
0 0 0 
0 0 0 
0 0 0 
0 0 0 
0 0 0 
0 0 0 
0 0 0 
0 0 0 
0 0 0 
0 0 0 
0 0 0 
0 0 0 
0 0 0 
0 0 0 
-0.9681198 0.24545908 0.049940147 
-0.9728066 0.22449082 0.057020817 
-0.9775437 0.20058967 0.06459194 
-0.98293126 0.1699075 0.0705529 
-0.98736805 0.14232767 0.069621556 
-0.99081945 0.118870445 0.064395204 
-0.99364185 0.09724307 0.056743693 
-0.99556965 0.08025887 0.04898697 
-0.9965819 0.07156114 0.041273195 
-0.99676836 0.07305518 0.033405922 
-0.9960893 0.08478738 0.024844324 
-0.9943427 0.10511045 0.015313596 
-0.991514 0.12991318 0.004745647 
-0.9879547 0.15464304 -0.0055812425 
-0.9838658 0.1782222 -0.015652603 
-0.97942054 0.20029856 -0.024820654 
-0.9749927 0.21978614 -0.032916054 
-0.9710067 0.23589692 -0.038712095 
-0.96793264 0.24769486 -0.04187727 
-0.9659904 0.255266 -0.041252907 
-0.96526366 0.2586255 -0.037135035 
-0.9654775 0.2588345 -0.029292027 
-0.966367 0.25644332 -0.019278979 
-0.96750385 0.25272277 -0.008226202 
-0.96878326 0.24790709 0.0011314305 
-0.97008765 0.24265946 0.006816543 
-0.9716166 0.23648313 0.006070228 
-0.9732393 0.22978164 -0.002367503 
-0.97461885 0.22305487 -0.019097675 
-0.9749942 0.21827127 -0.041761424 
-0.97459143 0.21357495 -0.06750851 
-0.9739931 0.20680337 -0.09257376 
-0.97417647 0.19530495 -0.11329751 
-0.9759212 0.17770788 -0.12648197 
-0.97930366 0.15475428 -0.13044323 
-0.98293227 0.13251358 -0.12761027 
-0.9872614 0.106789015 -0.117944896 
-0.992669 0.073678814 -0.09581117 
-0.99542946 0.052477878 -0.079790086 
-0.9967869 0.037056014 -0.07101331 
0 0 0 
0 0 0 
0 0 0 
0 0 0 
0 0 0 
0 0 0 
0 0 0 
0 0 0 
0 0 0 
0 0 0 
0 0 0 
0 0 0 
0 0 0 
0 0 0 
0 0 0 
0 0 0 
0 0 0 
0 0 0 
0 0 0 
0 0 0 
0 0 0 
0 0 0 
-0.9518423 0.30646372 -0.008725057 
-0.9572758 0.28904128 0.008846336 
-0.9644497 0.26206014 0.034079958 
-0.9711866 0.23306003 0.049797125 
-0.97695357 0.20464924 0.060666773 
-0.9822758 0.17488436 0.06745194 
-0.98688674 0.14583388 0.06918902 
-0.990603 0.1191901 0.067076966 
-0.9934521 0.09559209 0.062572666 
-0.99542207 0.07656737 0.057204444 
-0.9965765 0.06461866 0.05157376 
-0.99708253 0.06117675 0.04564894 
-0.9970076 0.066627085 0.03920259 
-0.9963221 0.079617634 0.03167547 
-0.99494094 0.09776203 0.023136301 
-0.9929142 0.11806158 0.013527298 
-0.99029326 0.13895042 0.0034806747 
-0.9872552 0.15899229 -0.006978442 
-0.98402286 0.17726395 -0.016632602 
-0.98097366 0.19251636 -0.025062557 
-0.9784024 0.20442545 -0.03064572 
-0.9765966 0.21251278 -0.033129744 
-0.9755559 0.21750094 -0.03137225 
-0.975226 0.21966021 -0.026148915 
-0.9752767 0.22028296 -0.017632015 
-0.9755433 0.21965966 -0.008052943 
-0.97576493 0.21881899 0.0010422062 
-0.976048 0.21745515 0.0066155237 
-0.9763577 0.2160506 0.006928021 
-0.97682184 0.21405432 -2.4551113e-05 
-0.97713536 0.21215197 -0.014076932 
-0.97712183 0.20993012 -0.034094717 
-0.9767187 0.20676415 -0.057177994 
-0.9764102 0.20052384 -0.080084 
-0.9767441 0.1900533 -0.099250995 
-0.9783351 0.17422287 -0.11183439 
-0.98117656 0.15404895 -0.11645438 
-0.98486954 0.13094375 -0.11351594 
-0.98908484 0.1045387 -0.103840426 
-0.99325067 0.07528247 -0.088236906 
-0.99614847 0.04758772 -0.07364565 
-0.9979329 0.01716863 -0.061929334 
-0.9985533 -0.018232347 -0.050587587 
-0.99818206 -0.038398765 -0.04645682 
0 0 0 
0 0 0 
0 0 0 
0 0 0 
0 0 0 
0 0 0 
0 0 0 
0 0 0 
0 0 0 
0 0 0 
0 0 0 
0 0 0 
0 0 0 
0 0 0 
0 0 0 
0 0 0 
0 0 0 
0 0 0 
-0.94031274 0.33133572 -0.0776446 
-0.94438803 0.32387885 -0.056867056 
-0.94970113 0.31212696 -0.02538727 
-0.95656085 0.29153267 -2.014264e-05 
-0.9637902 0.26559207 0.023863286 
-0.97064704 0.23673774 0.042422134 
-0.9767498 0.20692547 0.056052428 
-0.982113 0.17675503 0.064899 
-0.9867166 0.14690574 0.06934751 
-0.9904376 0.11879197 0.070155635 
-0.9932706 0.09327166 0.06865958 
-0.9952231 0.07200306 0.06592914 
-0.9964377 0.056496784 0.062609546 
-0.99710023 0.04823782 0.058858354 
-0.99739754 0.04743374 0.054296464 
-0.99737436 0.05361134 0.048684835 
-0.99702406 0.06501809 0.041421995 
-0.9962631 0.07992234 0.032747734 
-0.9950893 0.0964152 0.022391468 
-0.9934968 0.11329817 0.01130802 
-0.9916369 0.12905936 -0.00024199286 
-0.9896607 0.14304192 -0.010530816 
-0.9878372 0.15432742 -0.018998126 
-0.98630154 0.16322316 -0.023822844 
-0.98519087 0.16962728 -0.025011994 
-0.9843886 0.1746654 -0.02170712 
-0.9838147 0.17853332 -0.015318708 
-0.98320293 0.18239781 -0.0065699383 
-0.98254704 0.18600656 0.0017425017 
-0.9817559 0.18998294 0.007864831 
-0.9810624 0.19348487 0.00895894 
-0.98043555 0.19679987 0.004007792 
-0.97997206 0.19898316 -0.0077792522 
-0.9794498 0.20013496 -0.024983352 
-0.97898805 0.19876203 -0.045563184 
-0.97870624 0.19426279 -0.06630363 
-0.9791027 0.18517227 -0.08407876 
-0.9804551 0.1715694 -0.0962904 
-0.9829529 0.15336356 -0.10140693 
-0.9862856 0.13162725 -0.09957399 
-0.9901159 0.106241114 -0.091561444 
-0.993768 0.07805626 -0.0795773 
-0.9966122 0.04769252 -0.067003764 
-0.9983074 0.014263161 -0.05638242 
-0.9985883 -0.02194119 -0.04837331 
-0.997311 -0.057571463 -0.04534646 
-0.99435693 -0.095392846 -0.046415754 
-0.9917705 -0.11780382 -0.05013497 
0 0 0 
0 0 0 
0 0 0 
0 0 0 
0 0 0 
0 0 0 
0 0 0 
0 0 0 
0 0 0 
0 0 0 
0 0 0 
0 0 0 
0 0 0 
0 0 0 
-0.94118255 0.31292465 -0.1274903 
-0.9420237 0.31662124 -0.11109615 
-0.94212246 0.32396415 -0.08632879 
-0.9460284 0.3182269 -0.061334234 
-0.9513838 0.3061641 -0.033653043 
-0.95787007 0.28710586 -0.007441963 
-0.9646523 0.2630182 0.016353631 
-0.9711789 0.23556367 0.03635215 
-0.9770614 0.20657799 0.05173586 
-0.98225933 0.17671208 0.06276596 
-0.9866801 0.14704403 0.069574095 
-0.99028975 0.11821548 0.0731538 
-0.99302113 0.09155181 0.074347116 
-0.9949212 0.06804799 0.07417094 
-0.99609965 0.049361553 0.07313659 
-0.9967896 0.036366764 0.071330786 
-0.9971962 0.029854326 0.068619 
-0.9974942 0.029364232 0.06436586 
-0.9977048 0.034241784 0.058417477 
-0.99781877 0.042925645 0.050152153 
-0.99772114 0.05428657 0.040069476 
-0.9973773 0.06671309 0.028069077 
-0.9967226 0.079374544 0.015613466 
-0.9958413 0.09104839 0.0032333755 
-0.99479395 0.10166809 -0.006967666 
-0.9937433 0.11074966 -0.014454143 
-0.9927241 0.119132824 -0.017503573 
-0.99178547 0.12682939 -0.016610447 
-0.9907793 0.1349995 -0.0114700785 
-0.9896572 0.14339183 -0.00417907 
-0.98826087 0.15272325 0.004010629 
-0.9867364 0.16201858 0.010068496 
-0.9851202 0.17141838 0.012412041 
-0.98371106 0.17953536 0.0089240875 
-0.9824821 0.18635716 -0.0004322792 
-0.9815759 0.19046426 -0.015237208 
-0.980883 0.1917276 -0.03330504 
-0.9806411 0.188758 -0.052091412 
-0.98096263 0.18164355 -0.06868781 
-0.982195 0.16968146 -0.080630004 
-0.9843234 0.1536331 -0.086628474 
-0.987301 0.13341002 -0.08624703 
-0.9906901 0.10968088 -0.08064361 
-0.9940512 0.082286574 -0.07135145 
-0.9967818 0.051676594 -0.061282326 
-0.99847996 0.01734726 -0.05231664 
-0.9987251 -0.01997013 -0.0463621 
-0.9972733 -0.0589244 -0.044427343 
-0.994078 -0.09800667 -0.04694378 
-0.98957723 -0.13377932 -0.05329283 
-0.9839226 -0.16684493 -0.06371082 
-0.9799669 -0.1854447 -0.07263117 
0 0 0 
0 0 0 
0 0 0 
0 0 0 
0 0 0 
0 0 0 
0 0 0 
0 0 0 
0 0 0 
0 0 0 
0 0 0 
-0.948581 0.28770977 -0.13197403 
-0.94593114 0.29994634 -0.1234769 
-0.9462678 0.30488166 -0.10781753 
-0.9475171 0.30778545 -0.086485155 
-0.95070064 0.30370107 -0.06272182 
-0.95535564 0.29311892 -0.037106313 
-0.9608903 0.276668 -0.012031119 
-0.9668094 0.2552428 0.011437175 
-0.97254926 0.23053332 0.03166036 
-0.9778855 0.20349438 0.048271902 
-0.9826204 0.17540103 0.060758524 
-0.9867295 0.14664844 0.069708176 
-0.9900965 0.118369855 0.07548289 
-0.99269634 0.09109542 0.0790929 
-0.9945006 0.0662616 0.081105694 
-0.9956259 0.044701267 0.082042634 
-0.9962449 0.02779365 0.08199808 
-0.9966167 0.015882298 0.08064074 
-0.9969305 0.009409986 0.07772506 
-0.997339 0.0076638255 0.072500676 
-0.99783164 0.010150356 0.0650322 
-0.9983747 0.01554088 0.05483159 
-0.99881333 0.023139436 0.04285471 
-0.99906874 0.03165591 0.029320253 
-0.99903536 0.04082841 0.016171359 
-0.99874634 0.04988738 0.004120344 
-0.9982249 0.059377536 -0.004622729 
-0.9975623 0.06909128 -0.009793041 
-0.9967362 0.08009121 -0.0101116495 
-0.99572533 0.09211786 -0.0067382604 
-0.99436975 0.105966166 -6.349852e-05 
-0.9926704 0.120633334 0.007284756 
-0.9905863 0.13619554 0.013771242 
-0.9884044 0.15093291 0.016615625 
-0.98625624 0.16455945 0.014793123 
-0.98449045 0.17528878 0.0072355974 
-0.98309565 0.18301971 -0.005176476 
-0.9822626 0.18632095 -0.021088224 
-0.98191226 0.18547058 -0.038066354 
-0.9822771 0.17961079 -0.05358859 
-0.9833461 0.16950491 -0.06556321 
-0.9852844 0.1548392 -0.07238547 
-0.9878788 0.13647601 -0.073958576 
-0.9909646 0.11405935 -0.070567645 
-0.99405175 0.08804754 -0.06409992 
-0.99674 0.057940405 -0.056146387 
-0.99850243 0.02402085 -0.049152207 
-0.99892414 -0.013543053 -0.044352535 
-0.99763536 -0.05331607 -0.043370865 
-0.9945182 -0.093745604 -0.046318363 
-0.98978746 -0.13220628 -0.053313255 
-0.98399425 -0.1665861 -0.06328193 
-0.97825474 -0.19377297 -0.073958255 
-0.9739027 -0.21115029 -0.083242066 
0 0 0 
0 0 0 
0 0 0 
0 0 0 
0 0 0 
0 0 0 
0 0 0 
0 0 0 
0 0 0 
-0.96250105 0.24169096 -0.1231963 
-0.95703536 0.2631385 -0.1218258 
-0.9546872 0.2750131 -0.113754876 
-0.9543204 0.28163433 -0.099773444 
-0.9551958 0.2845711 -0.08136633 
-0.95748967 0.28219193 -0.059843484 
-0.96092236 0.27435708 -0.036829975 
-0.96522665 0.26107043 -0.013408288 
-0.9698852 0.24340956 0.0086413715 
-0.97461367 0.22205524 0.028631467 
-0.97906965 0.1984028 0.04537556 
-0.9831801 0.17284279 0.05901182 
-0.98678696 0.14646499 0.06927895 
-0.9898547 0.11943958 0.07695481 
-0.9922626 0.09292328 0.082341656 
-0.99400085 0.06734731 0.086178705 
-0.99508214 0.04413204 0.08867945 
-0.9956634 0.023831064 0.08992432 
-0.9959341 0.007595579 0.08976454 
-0.99614316 -0.004561258 0.08762433 
-0.9964465 -0.012267071 0.08333018 
-0.99696165 -0.016250232 0.07618005 
-0.99763983 -0.0167074 0.066601574 
-0.9984111 -0.014695186 0.05440079 
-0.99910355 -0.010386146 0.041039743 
-0.99962324 -0.0046357433 0.027055392 
-0.99988794 0.0029232895 0.014680714 
-0.9999186 0.01190299 0.004597412 
-0.9997293 0.023234934 -0.001238138 
-0.99932337 0.03665118 -0.0030869653 
-0.9985929 0.053028993 -0.00038099347 
-0.99743015 0.07146792 0.0050464612 
-0.995675 0.09210084 0.012198794 
-0.9934206 0.11305247 0.018292202 
-0.99076986 0.13377404 0.021899074 
-0.98815954 0.15199271 0.02095483 
-0.98579586 0.16725819 0.015204269 
-0.9840629 0.17776008 0.004654254 
-0.98293525 0.18372104 -0.009217677 
-0.98259336 0.18413939 -0.02455592 
-0.9829001 0.17991592 -0.039215762 
-0.9840003 0.17068745 -0.051079687 
-0.98574 0.157577 -0.05904465 
-0.9881542 0.14028233 -0.062228423 
-0.99093395 0.11950444 -0.0613892 
-0.9938739 0.09460951 -0.057128612 
-0.9964964 0.065864965 -0.051543556 
-0.9984106 0.03278234 -0.045843974 
-0.9991031 -0.0038955861 -0.042165622 
-0.99820614 -0.043381054 -0.04126386 
-0.9955054 -0.08370364 -0.04430281 
-0.99113697 -0.12271081 -0.050889436 
-0.9855922 -0.15787953 -0.06068169 
-0.97976834 -0.18680471 -0.07181963 
-0.9748703 -0.20684355 -0.082726784 
-0.97294647 -0.21226725 -0.09120222 
0 0 0 
0 0 0 
0 0 0 
0 0 0 
0 0 0 
0 0 0 
0 0 0 
-0.9765792 0.18835677 -0.10399493 
-0.97093695 0.21343654 -0.10828851 
-0.96716577 0.23070091 -0.10661864 
-0.96495473 0.24285085 -0.09942766 
-0.9639929 0.2510678 -0.08765091 
-0.96413016 0.25553113 -0.07181124 
-0.96526825 0.25574416 -0.05340595 
-0.9674083 0.2510578 -0.033034615 
-0.9702404 0.2418278 -0.012366559 
-0.97358406 0.2281882 0.008017881 
-0.9770606 0.21129379 0.02660192 
-0.98054844 0.19146094 0.043215506 
-0.9838231 0.1698381 0.056983292 
-0.986859 0.14642113 0.06833843 
-0.98950857 0.12218672 0.07709224 
-0.99172777 0.097102195 0.08394786 
-0.993402 0.07232955 0.089000255 
-0.99453425 0.0481423 0.0926507 
-0.9951543 0.025889479 0.094856 
-0.995422 0.00588308 0.095397025 
-0.9955071 -0.010816638 0.09406658 
-0.9956252 -0.024323875 0.090215914 
-0.9958904 -0.034122933 0.08389328 
-0.99637914 -0.040789064 0.07459795 
-0.99702626 -0.0440934 0.063202776 
-0.99775374 -0.044722088 0.049874872 
-0.9984404 -0.04226148 0.036480635 
-0.9990274 -0.037159264 0.023737209 
-0.9994959 -0.028569583 0.0138465185 
-0.9998337 -0.016765239 0.0071837734 
-0.9999867 -0.00079211703 0.0051095444 
-0.9998038 0.01864488 0.0066955653 
-0.9990537 0.04188071 0.011737675 
-0.9975814 0.06714949 0.017955504 
-0.9952977 0.09382783 0.024061222 
-0.9924762 0.119287014 0.027598439 
-0.98939574 0.14259699 0.027610505 
-0.9866346 0.16131684 0.023003645 
-0.98442554 0.17522518 0.01422791 
-0.98312956 0.18289846 0.0021068691 
-0.98263675 0.18516782 -0.01174648 
-0.98304504 0.1815946 -0.025415154 
-0.984108 0.17359102 -0.037385184 
-0.9858744 0.16103348 -0.046041735 
-0.98809826 0.14507878 -0.05112863 
-0.9907556 0.12522319 -0.052178092 
-0.9935119 0.10194142 -0.05041859 
-0.9961445 0.07443719 -0.04642639 
-0.9981778 0.0430633 -0.042269867 
-0.99921566 0.007732345 -0.038838644 
-0.99881846 -0.030235814 -0.038046822 
-0.9967766 -0.069407254 -0.04023798 
-0.99314904 -0.107323535 -0.046223953 
-0.98838526 -0.14161253 -0.05514041 
-0.98327017 -0.16968429 -0.06623576 
-0.97889084 -0.18907885 -0.07760169 
-0.9764721 -0.19705473 -0.08758871 
-0.9773024 -0.18988197 -0.09394116 
0 0 0 
0 0 0 
0 0 0 
0 0 0 
0 0 0 
-0.9872098 0.13766892 -0.08040048 
-0.9829372 0.16179684 -0.087499514 
-0.97952783 0.18002248 -0.09009591 
-0.97685564 0.19490635 -0.08811674 
-0.9748813 0.20703687 -0.08211116 
-0.9736165 0.216479 -0.072165884 
-0.9729914 0.22308344 -0.059342843 
-0.9731281 0.22604918 -0.04385796 
-0.9739471 0.2251572 -0.027046086 
-0.9754662 0.21996064 -0.009121804 
-0.9774231 0.2111218 0.008464866 
-0.97972786 0.19869421 0.025573699 
-0.98211384 0.18377994 0.040957544 
-0.9845485 0.166324 0.054777503 
-0.98687106 0.14728051 0.06628816 
-0.9890778 0.12630627 0.07597295 
-0.9910319 0.10427792 0.08355885 
-0.99268615 0.0809589 0.089554355 
-0.9939234 0.057479374 0.09387444 
-0.99473816 0.033946395 0.09666266 
-0.9951404 0.011677728 0.097772256 
-0.99525887 -0.009132121 0.09683202 
-0.99522346 -0.027330939 0.09371894 
-0.99520683 -0.042956907 0.087853536 
-0.9952993 -0.055164065 0.07960165 
-0.9955626 -0.064234704 0.068767935 
-0.9959769 -0.069433354 0.056648843 
-0.9965125 -0.07107297 0.043722037 
-0.9971539 -0.06825601 0.03201959 
-0.99787736 -0.06122242 0.022197736 
-0.99867207 -0.04894967 0.016066197 
-0.9993993 -0.031932816 0.013465655 
-0.9998422 -0.009557655 0.014972261 
-0.999678 0.016752576 0.019061603 
-0.9986025 0.04658937 0.024948897 
-0.99654555 0.077315316 0.03032007 
-0.99360234 0.10769347 0.03400751 
-0.990296 0.13468094 0.03427613 
-0.98706037 0.15736486 0.030793741 
-0.984542 0.17358063 0.023386551 
-0.98290205 0.18367739 0.012896802 
-0.9823877 0.1868535 0.0005638595 
-0.98274195 0.18457475 -0.012272031 
-0.9839493 0.17684227 -0.023891078 
-0.9856741 0.16530986 -0.03345826 
-0.98791504 0.14982055 -0.039719213 
-0.9904041 0.13135146 -0.042970356 
-0.9930998 0.10915469 -0.042872004 
-0.9956634 0.08357319 -0.040864296 
-0.9978446 0.053911194 -0.037413772 
-0.999184 0.020874437 -0.034577947 
-0.99934113 -0.015023983 -0.033042397 
-0.9980563 -0.051870983 -0.0345403 
-0.99538285 -0.08767507 -0.039065693 
-0.99168473 -0.11978075 -0.047054283 
-0.9876613 -0.14577533 -0.05722603 
-0.98417133 -0.16341312 -0.06857818 
-0.98211485 -0.17088304 -0.079054564 
-0.9821154 -0.16696687 -0.08701452 
-0.98463327 -0.14938632 -0.09044996 
0 0 0 
0 0 0 
0 0 0 
-0.9937118 0.094612114 -0.05987761 
-0.99104005 0.11608742 -0.066056155 
-0.98878664 0.13198799 -0.06985805 
-0.98678803 0.14580539 -0.07064244 
-0.98498493 0.15848614 -0.0684603 
-0.98339295 0.17017613 -0.06307432 
-0.981993 0.18065743 -0.055251203 
-0.98091125 0.18920416 -0.044887688 
-0.98019636 0.19525684 -0.03301323 
-0.9800253 0.19792305 -0.019415062 
-0.98033834 0.19725509 -0.00522421 
-0.98117167 0.19289084 0.00976941 
-0.9823114 0.18566723 0.02433306 
-0.983729 0.17545664 0.038629916 
-0.98523784 0.16325295 0.051526144 
-0.98686713 0.14862803 0.0632693 
-0.9885069 0.13233772 0.073082015 
-0.99017745 0.11371203 0.08135245 
-0.9917465 0.09351172 0.08771881 
-0.993154 0.07129997 0.09252893 
-0.99424934 0.04818658 0.09563615 
-0.9949869 0.024190055 0.09703609 
-0.99532354 0.000729961 0.09659465 
-0.9953406 -0.021923792 0.0938968 
-0.9951328 -0.04232398 0.088991515 
-0.99485236 -0.060250733 0.08147828 
-0.9946194 -0.07441188 0.07207666 
-0.9945369 -0.08476315 0.060924154 
-0.9946938 -0.09012923 0.04960805 
-0.9951327 -0.09060515 0.03875059 
-0.9959175 -0.08505567 0.030232606 
-0.9969752 -0.07379689 0.024384957 
-0.99818295 -0.05595526 0.022355447 
-0.99919736 -0.032531515 0.02337732 
-0.9996213 -0.0035066241 0.02729655 
-0.9990621 0.028860213 0.03227884 
-0.9972882 0.06342217 0.037332896 
-0.9944686 0.09689068 0.040550616 
-0.9909501 0.12775481 0.04119124 
-0.98747826 0.15301631 0.038375836 
-0.98453516 0.17218949 0.032268524 
-0.9827017 0.1837222 0.023316024 
-0.9819607 0.18868056 0.012361917 
-0.9823824 0.18688059 0.0007206462 
-0.9835638 0.1802423 -0.010726566 
-0.98541176 0.1689515 -0.020470623 
-0.9875716 0.15462297 -0.028180117 
-0.9900461 0.13688375 -0.03273795 
-0.99258727 0.11646263 -0.03474318 
-0.9951386 0.092478365 -0.033867255 
-0.9973595 0.06533432 -0.031708647 
-0.99898523 0.034700576 -0.028715303 
-0.9996342 0.001782064 -0.026986683 
-0.9991133 -0.032254696 -0.027061282 
-0.9974165 -0.06506706 -0.030443069 
-0.99485797 -0.094384335 -0.036733367 
-0.99197936 -0.117756344 -0.04594139 
-0.9894738 -0.13325632 -0.056431167 
-0.98793024 -0.139664 -0.06699171 
-0.9877502 -0.13649167 -0.07562829 
-0.98898923 -0.12382748 -0.081038035 
-0.9916126 -0.10004785 -0.08182244 
0 0 0 
0 0 0 
-0.9949102 0.08722714 -0.050451808 
-0.9941844 0.09429337 -0.052022185 
-0.9932624 0.10312097 -0.052877072 
-0.9922593 0.11270041 -0.052154083 
-0.9911744 0.12308218 -0.04923501 
-0.98995775 0.13412762 -0.044648122 
-0.98865503 0.14527166 -0.038178455 
-0.9873117 0.1557998 -0.030694166 
-0.98612374 0.16458382 -0.02173131 
-0.98518294 0.17108066 -0.012086392 
-0.98466694 0.1744419 -0.001082812 
-0.98451316 0.1750031 0.010384223 
-0.98475814 0.17242569 0.022822674 
-0.98522455 0.16763751 0.03507654 
-0.9859379 0.16025808 0.04737003 
-0.98678505 0.1511032 0.05850887 
-0.9878607 0.13934399 0.0686624 
-0.9891009 0.12550364 0.07699624 
-0.99054635 0.10859417 0.08381706 
-0.9920434 0.08926711 0.088777564 
-0.99349153 0.06695707 0.092149 
-0.99466676 0.042857885 0.09381539 
-0.99545544 0.017079473 0.09368483 
-0.99575 -0.008652541 0.091690876 
-0.9955956 -0.03378416 0.08745375 
-0.99509543 -0.05642009 0.081252575 
-0.99443525 -0.07601215 0.072944164 
-0.99383247 -0.090860285 0.06357251 
-0.9934732 -0.10071934 0.0535417 
-0.9935612 -0.104190014 0.04450519 
-0.9941587 -0.101391904 0.036990475 
-0.9953015 -0.09123287 0.032428965 
-0.9967608 -0.07435582 0.030646633 
-0.99822026 -0.050288927 0.032052997 
-0.99915844 -0.02070564 0.035406757 
-0.99910164 0.013711716 0.040099688 
-0.99776524 0.049944405 0.044385426 
-0.9951374 0.086315945 0.047448047 
-0.9916966 0.11928382 0.048054952 
-0.9879952 0.14749363 0.04594829 
-0.98486423 0.16842112 0.040947393 
-0.98267937 0.1822795 0.033398684 
-0.981827 0.18825294 0.024013206 
-0.9820681 0.18805186 0.013368295 
-0.98331004 0.18191743 0.002718062 
-0.98507935 0.17193967 -0.007453729 
-0.98727804 0.15822588 -0.015704308 
-0.9896011 0.14214951 -0.021980822 
-0.9920786 0.12307072 -0.025175704 
-0.9944898 0.10153183 -0.026103102 
-0.9967516 0.07671684 -0.02451269 
-0.9985379 0.049279746 -0.022217898 
-0.99961644 0.019428479 -0.019735726 
-0.99975425 -0.011139135 -0.019168999 
-0.99895245 -0.040741052 -0.020838665 
-0.9974211 -0.06694615 -0.025873324 
-0.9955914 -0.087644346 -0.03340991 
-0.9939422 -0.101134524 -0.043019753 
-0.99290174 -0.1065566 -0.05283787 
-0.99263483 -0.10426905 -0.061677154 
-0.99306715 -0.09588702 -0.06799664 
-0.99374974 -0.08584399 -0.07135993 
0 0 0 
-0.99824476 0.04863173 -0.03380098 
-0.99715686 0.06494396 -0.038216017 
-0.9967689 0.070133425 -0.039154526 
-0.9964539 0.074818745 -0.038496383 
-0.9960518 0.081051044 -0.036218 
-0.99545914 0.089342415 -0.032851566 
-0.9946197 0.09966006 -0.028275536 
-0.9934943 0.11145265 -0.023399388 
-0.9921647 0.12366057 -0.017814444 
-0.9907268 0.13532019 -0.012201983 
-0.9893932 0.1451551 -0.0055902204 
-0.98825085 0.15283318 0.0015409047 
-0.987446 0.15762486 0.010235946 
-0.9868971 0.16014344 0.019701164 
-0.9866448 0.16000779 0.030490777 
-0.9865535 0.15812635 0.041330833 
-0.98672014 0.15377595 0.052310724 
-0.9871084 0.14750363 0.062127925 
-0.987886 0.13805366 0.07086994 
-0.98901635 0.12570259 0.077753454 
-0.9905402 0.109208986 0.083086826 
-0.9922384 0.089210644 0.08662835 
-0.9939319 0.065189436 0.08859874 
-0.9952888 0.03863091 0.08892626 
-0.99611896 0.009972494 0.08745122 
-0.9962748 -0.018562458 0.08421303 
-0.9958158 -0.046016254 0.078952536 
-0.99492526 -0.07004884 0.072227985 
-0.9938817 -0.08988793 0.06418341 
-0.9930334 -0.10362884 0.056086637 
-0.99263245 -0.111058734 0.048443735 
-0.99292326 -0.11081162 0.042711284 
-0.9938873 -0.103249334 0.039086755 
-0.9954212 -0.08754467 0.038376793 
-0.99709946 -0.06482547 0.039881155 
-0.9984378 -0.035172217 0.04341575 
-0.99886817 -0.0009605295 0.047554567 
-0.9980006 0.03648831 0.05160963 
-0.99580634 0.07366111 0.054256465 
-0.9925466 0.10871754 0.05506142 
-0.9889435 0.13832018 0.053462636 
-0.9856061 0.16165024 0.049497504 
-0.98326963 0.1769184 0.0433668 
-0.98208624 0.18509583 0.03530183 
-0.9822028 0.18600711 0.026056958 
-0.98321265 0.18176891 0.01590582 
-0.9849444 0.17276356 0.006108241 
-0.9869551 0.16096683 -0.0030618731 
-0.98920053 0.14622034 -0.010096905 
-0.99145514 0.12957056 -0.015107562 
-0.9937648 0.110186234 -0.017041443 
-0.9959262 0.08855807 -0.016986523 
-0.9978294 0.06414595 -0.014895649 
-0.999197 0.03796503 -0.012806557 
-0.99987835 0.010793216 -0.01126292 
-0.99980783 -0.015351793 -0.012194075 
-0.9991347 -0.038579077 -0.015538981 
-0.9981449 -0.056805108 -0.02190521 
-0.9971974 -0.068550564 -0.029972387 
-0.99655193 -0.07324407 -0.038981225 
-0.9963484 -0.071241334 -0.047060836 
-0.9965403 -0.06391957 -0.0531209 
-0.99711853 -0.051777262 -0.055442914 
-0.9983682 -0.025297519 -0.051197015 
-0.99874187 0.038520858 -0.032108035 
-0.9985397 0.04339873 -0.03217349 
-0.9984885 0.04532034 -0.031095464 
-0.99848676 0.046981957 -0.028583841 
-0.9984065 0.050547887 -0.025089363 
-0.9981523 0.057149358 -0.0206427 
-0.9976252 0.06692529 -0.01628046 
-0.9967769 0.07933355 -0.011920297 
-0.9955957 0.09337188 -0.008430908 
-0.99418336 0.10758844 -0.0049365554 
-0.9926509 0.12100152 -0.0017278051 
-0.99119586 0.13237728 0.002656061 
-0.9898739 0.14172678 0.007952708 
-0.9887997 0.14846033 0.015320403 
-0.9878769 0.15339763 0.023841878 
-0.98717576 0.15600115 0.03387674 
-0.9866181 0.15701589 0.04394102 
-0.9863948 0.15528707 0.053956665 
-0.9865448 0.15102366 0.06262088 
-0.987303 0.14257437 0.070037395 
-0.988623 0.13003996 0.07559232 
-0.99050236 0.11209756 0.07961872 
-0.99260044 0.08957993 0.08197536 
-0.9946195 0.062278833 0.08278592 
-0.99611074 0.03220985 0.08201212 
-0.9968373 0.00031932953 0.07946899 
-0.9966847 -0.030614374 0.07538271 
-0.99580324 -0.059297 0.06971221 
-0.9945244 -0.083137766 0.06332012 
-0.9932371 -0.101383135 0.05658241 
-0.99238575 -0.112197235 0.05081693 
-0.9922098 -0.115614496 0.04640255 
-0.99288476 -0.11050316 0.044373505 
-0.99423325 -0.09759507 0.04444736 
-0.9959727 -0.07646609 0.046811067 
-0.99753743 -0.04879423 0.050382048 
-0.99838763 -0.015247739 0.054678887 
-0.998067 0.021220315 0.05841334 
-0.99639225 0.058885384 0.06111437 
-0.9936261 0.09413856 0.06200999 
-0.99023 0.1253881 0.061010767 
-0.98700166 0.1498779 0.058003474 
-0.98443973 0.1675254 0.053044178 
-0.9830585 0.17730983 0.046447348 
-0.98277533 0.18081146 0.03820813 
-0.9835557 0.17824364 0.029112007 
-0.9849402 0.17181845 0.019269187 
-0.9867748 0.16178422 0.010073479 
-0.98871624 0.14979038 0.0017313436 
-0.99078923 0.13534886 -0.0041967575 
-0.99283713 0.11920604 -0.0080333315 
-0.994897 0.10050005 -0.008932803 
-0.99677455 0.07982011 -0.008325016 
-0.99835086 0.057051055 -0.00639304 
-0.99942267 0.033568155 -0.005255142 
-0.99992985 0.010598926 -0.005291304 
-0.99991983 -0.009813984 -0.008012789 
-0.9995806 -0.02595201 -0.012849106 
-0.9991378 -0.036454342 -0.019868799 
-0.99879193 -0.04073823 -0.027478335 
-0.9986197 -0.039288174 -0.034858737 
-0.9986312 -0.033106092 -0.040494572 
-0.99876636 -0.023340655 -0.04383049 
-0.9989451 -0.011257715 -0.044520054 
-0.99917877 0.02365637 -0.032899052 
-0.99925137 0.022669455 -0.031349644 
-0.99937916 0.0205864 -0.028590767 
-0.99950993 0.019237125 -0.024698045 
-0.9995942 0.020643903 -0.019631628 
-0.99956006 0.02592811 -0.014403459 
-0.99932694 0.035482734 -0.009308392 
-0.9987941 0.04877804 -0.0055749104 
-0.9979057 0.064624004 -0.0028195714 
-0.9966578 0.0816764 -0.0015448089 
-0.99515885 0.09827964 -0.00029588887 
-0.99351776 0.11367334 0.0010165699 
-0.99191827 0.12681139 0.004128549 
-0.99038136 0.13808715 0.008755705 
-0.9890104 0.14699036 0.015882354 
-0.98770946 0.1543998 0.0243088 
-0.9866105 0.15948683 0.034112886 
-0.98570937 0.1626927 0.043681644 
-0.9853078 0.16239734 0.05287502 
-0.98550314 0.15848634 0.060545765 
-0.9865657 0.14905272 0.066868454 
-0.98837584 0.13421561 0.07141067 
-0.99081963 0.11284642 0.0744467 
-0.9933806 0.08624842 0.07587076 
-0.9956267 0.05477507 0.07567835 
-0.99704057 0.021112174 0.07392204 
-0.9974229 -0.013277738 0.070507675 
-0.99679667 -0.04521576 0.065970115 
-0.9954689 -0.07331943 0.0605483 
-0.99393135 -0.0950557 0.055361032 
-0.9926356 -0.10994801 0.050852805 
-0.9920279 -0.116447784 0.048172396 
-0.992242 -0.114955254 0.047341127 
-0.9933051 -0.10468298 0.048852585 
-0.99487305 -0.08678056 0.051930718 
-0.99653 -0.0612907 0.056315556 
-0.9976878 -0.030402556 0.06078546 
-0.9978821 0.004733063 0.06487662 
-0.99687153 0.040865596 0.06765505 