# OOMMF OVF 2.0
# Segment count: 1
# Begin: Segment
# Begin: Header
# Title: m
# meshtype: rectangular
# meshunit: m
# xmin: 0
# ymin: 0
# zmin: 0
# xmax: 1.6e-07
# ymax: 8e-08
# zmax: 5e-09
# valuedim: 3
# valuelabels: m_x m_y m_z
# valueunits: 1 1 1
# Desc: Total simulation time:  4.001431659287389e-10  s
# xbase: 1.25e-09
# ybase: 1.25e-09
# zbase: 2.5e-09
# xnodes: 64
# ynodes: 32
# znodes: 1
# xstepsize: 2.5e-09
# ystepsize: 2.5e-09
# zstepsize: 5e-09
# End: Header
# Begin: Data Text
0 0 0 
0 0 0 
0 0 0 
0 0 0 
0 0 0 
0 0 0 
0 0 0 
0 0 0 
0 0 0 
0 0 0 
0 0 0 
0 0 0 
0 0 0 
0 0 0 
0 0 0 
0 0 0 
0 0 0 
0 0 0 
0 0 0 
0 0 0 
0 0 0 
0 0 0 
0 0 0 
0 0 0 
0.6765821 0.731896 -0.081025235 
0.6609698 0.7460004 -0.081254885 
0.6357381 0.7681685 -0.07585699 
0.60733896 0.791915 -0.06332586 
0.580408 0.813152 -0.04370791 
0.558567 0.8292667 -0.01787617 
0.5444126 0.8387165 0.01302531 
0.53920764 0.84083444 0.04746077 
0.5429415 0.8355772 0.0838181 
0.5545715 0.8234044 0.12023174 
0.5725974 0.8050601 0.15495336 
0.5955231 0.78142506 0.18635237 
0.6221337 0.7532912 0.21331199 
0.65114224 0.72159445 0.23519193 
0.6799591 0.6886648 0.2517864 
0.7016749 0.66237575 0.2625088 
0 0 0 
0 0 0 
0 0 0 
0 0 0 
0 0 0 
0 0 0 
0 0 0 
0 0 0 
0 0 0 
0 0 0 
0 0 0 
0 0 0 
0 0 0 
0 0 0 
0 0 0 
0 0 0 
0 0 0 
0 0 0 
0 0 0 
0 0 0 
0 0 0 
0 0 0 
0 0 0 
0 0 0 
0 0 0 
0 0 0 
0 0 0 
0 0 0 
0 0 0 
0 0 0 
0 0 0 
0 0 0 
0 0 0 
0 0 0 
0 0 0 
0 0 0 
0 0 0 
0 0 0 
0 0 0 
0 0 0 
0 0 0 
0 0 0 
0.8613498 0.4932845 0.12143742 
0.8563939 0.5069276 0.09805061 
0.8440785 0.5323437 0.064356916 
0.8241705 0.5656938 0.027085718 
0.79571956 0.6056017 -0.008773791 
0.7564205 0.65287083 -0.03984773 
0.7023942 0.7088229 -0.06490442 
0.6663898 0.74216264 -0.07154884 
0.6346495 0.76982903 -0.067699425 
0.6047895 0.7944447 -0.055563472 
0.57838684 0.8149407 -0.03661141 
0.55794835 0.8297906 -0.0118855 
0.54543364 0.8379786 0.0171529 
0.54187375 0.8390112 0.04932732 
0.5470733 0.8329624 0.08297211 
0.56006277 0.8201897 0.11669932 
0.5794275 0.8013276 0.14878848 
0.6039802 0.7768724 0.17798103 
0.6330294 0.74700475 0.20312004 
0.6667112 0.71095836 0.22368367 
0.70647496 0.6660527 0.23930526 
0.7580238 0.60264105 0.24944699 
0.83946705 0.48153955 0.25182325 
0.8974798 0.36031857 0.2543631 
0.936983 0.23975219 0.2541293 
0.9599566 0.12310693 0.25165078 
0.96833473 0.01863525 0.24895926 
0.9669651 -0.056449134 0.24858005 
0 0 0 
0 0 0 
0 0 0 
0 0 0 
0 0 0 
0 0 0 
0 0 0 
0 0 0 
0 0 0 
0 0 0 
0 0 0 
0 0 0 
0 0 0 
0 0 0 
0 0 0 
0 0 0 
0 0 0 
0 0 0 
0 0 0 
0 0 0 
0 0 0 
0 0 0 
0 0 0 
0 0 0 
0 0 0 
0 0 0 
0 0 0 
0 0 0 
0 0 0 
0 0 0 
0 0 0 
0 0 0 
0 0 0 
0.90475154 0.38472623 0.1827854 
0.90009815 0.401589 0.16896634 
0.8902309 0.43060058 0.14856747 
0.87140065 0.4750723 0.12234138 
0.85650307 0.5077954 0.092447124 
0.8395584 0.54015756 0.05806443 
0.81722516 0.57588136 0.022445092 
0.78791016 0.6157011 -0.0104739545 
0.7509218 0.6593405 -0.037239444 
0.7082055 0.7038529 -0.055100877 
0.6703461 0.73956275 -0.060689427 
0.6369435 0.76886773 -0.05608412 
0.6074596 0.79315 -0.043657195 
0.5830198 0.8120761 -0.024908476 
0.5652566 0.8249136 -0.0016025811 
0.5556832 0.83101004 0.02527151 
0.5548309 0.83019716 0.05417862 
0.5624635 0.8225197 0.08423903 
0.5775177 0.80838776 0.113940954 
0.598832 0.78812253 0.14234866 
0.62541735 0.76195866 0.16814329 
0.6570365 0.729346 0.19067672 
0.6942586 0.6886196 0.20930405 
0.73861754 0.6358624 0.22388186 
0.79205817 0.5637394 0.23418322 
0.85338354 0.46275976 0.23997907 
0.9049371 0.34926352 0.24311313 
0.942199 0.23052233 0.24314712 
0.9641931 0.1114431 0.24064925 
0.9715786 -0.0033451596 0.23669383 
0.9661776 -0.113607325 0.23150425 
0.9437831 -0.24778606 0.21880469 
0.90943116 -0.35699522 0.21328224 
0.87843364 -0.42761326 0.21331069 
0 0 0 
0 0 0 
0 0 0 
0 0 0 
0 0 0 
0 0 0 
0 0 0 
0 0 0 
0 0 0 
0 0 0 
0 0 0 
0 0 0 
0 0 0 
0 0 0 
0 0 0 
0 0 0 
0 0 0 
0 0 0 
0 0 0 
0 0 0 
0 0 0 
0 0 0 
0 0 0 
0 0 0 
0 0 0 
0 0 0 
0 0 0 
0.9540969 0.22442512 0.19832464 
0.9482367 0.25432298 0.19017616 
0.93709767 0.2981966 0.1814576 
0.9176962 0.35749805 0.17328887 
0.9035048 0.39848474 0.15776272 
0.88955975 0.43593857 0.13653225 
0.8725694 0.47590563 0.1101654 
0.85471916 0.5129501 0.07960673 
0.834521 0.549004 0.046575468 
0.81007725 0.58615583 0.014007544 
0.7804959 0.6249929 -0.014494842 
0.74611676 0.66484725 -0.035889618 
0.70919734 0.70336527 -0.04812969 
0.6742266 0.7368234 -0.050099578 
0.6428741 0.7647466 -0.043306947 
0.61613387 0.78709084 -0.02944685 
0.59511846 0.803566 -0.010758725 
0.58128154 0.8136203 0.011570274 
0.57550704 0.8170109 0.035846833 
0.578183 0.81358546 0.061508007 
0.58871746 0.80361813 0.08723368 
0.60619414 0.78730255 0.11262088 
0.6294164 0.7649859 0.13649762 
0.65764856 0.73646694 0.15847658 
0.6906299 0.7010281 0.17773567 
0.7287858 0.65664786 0.19412611 
0.7726319 0.6000396 0.20734636 
0.82175577 0.5267623 0.21734548 
0.872576 0.43407944 0.22402258 
0.91704243 0.3274642 0.22759698 
0.9502143 0.21230051 0.22808158 
0.9697258 0.09322266 0.22570212 
0.97482646 -0.026132151 0.22142829 
0.9657046 -0.14452809 0.21569952 
0.9415322 -0.26453567 0.20865816 
0.9062512 -0.36970288 0.20500892 
0.86790407 -0.4521212 0.20574026 
0.8265891 -0.5231583 0.20749877 
0.7891173 -0.5758905 0.21364518 
0.7625048 -0.6080288 0.2211049 
0 0 0 
0 0 0 
0 0 0 
0 0 0 
0 0 0 
0 0 0 
0 0 0 
0 0 0 
0 0 0 
0 0 0 
0 0 0 
0 0 0 
0 0 0 
0 0 0 
0 0 0 
0 0 0 
0 0 0 
0 0 0 
0 0 0 
0 0 0 
0 0 0 
0 0 0 
0.9782141 0.06091545 0.19846055 
0.9753751 0.10678643 0.19297667 
0.9646504 0.18323205 0.18940873 
0.9531695 0.24248357 0.18074767 
0.9395665 0.2971722 0.17001078 
0.92278945 0.35173416 0.15729831 
0.90637255 0.39867595 0.13980834 
0.8899036 0.4406962 0.117722526 
0.8719813 0.4809585 0.09125485 
0.8523507 0.51930434 0.061816324 
0.8301482 0.55666316 0.03130925 
0.8045563 0.5938693 0.002889422 
0.7754131 0.6311241 -0.020421261 
0.74357533 0.6676787 -0.03606986 
0.71093357 0.70196366 -0.042668745 
0.6799975 0.73210305 -0.040355198 
0.65261257 0.75708634 -0.030284531 
0.63003033 0.7764293 -0.014811072 
0.61361545 0.78959227 0.0045041703 
0.60434794 0.7963108 0.025546486 
0.6030132 0.79630387 0.047698915 
0.6094576 0.78975755 0.06960297 
0.62313247 0.77677214 0.09127413 
0.6428554 0.75779295 0.1117447 
0.667628 0.7328557 0.13113154 
0.6965886 0.701893 0.14869675 
0.72948635 0.66390914 0.16454308 
0.7663058 0.61725104 0.17825992 
0.8069541 0.5592555 0.18989101 
0.85024077 0.48724797 0.199199 
0.8930916 0.39997354 0.20593329 
0.9306806 0.29958758 0.20995511 
0.958941 0.18957478 0.21093543 
0.97507954 0.07364286 0.2092767 
0.977646 -0.044569712 0.20547958 
0.9661373 -0.16208735 0.20076482 
0.94112027 -0.2753659 0.19612814 
0.90600187 -0.37616113 0.19407056 
0.86670434 -0.45896107 0.19539276 
0.82740206 -0.52488375 0.19975744 
0.7933657 -0.57219946 0.20774665 
0.7709137 -0.5981097 0.21899061 
0.76537716 -0.60048014 0.23156305 
0.759488 -0.6038514 0.2419538 
0 0 0 
0 0 0 
0 0 0 
0 0 0 
0 0 0 
0 0 0 
0 0 0 
0 0 0 
0 0 0 
0 0 0 
0 0 0 
0 0 0 
0 0 0 
0 0 0 
0 0 0 
0 0 0 
0 0 0 
0 0 0 
0.9726463 -0.12369858 0.19661629 
0.97871137 -0.071917735 0.19222909 
0.9815197 0.0137244435 0.19086847 
0.97868794 0.08847955 0.18531457 
0.9702497 0.16406386 0.17804106 
0.9581908 0.23202725 0.16743292 
0.94350076 0.2932819 0.1542471 
0.92673826 0.34938076 0.13816467 
0.9091977 0.3990982 0.1186602 
0.89106685 0.4437313 0.0954067 
0.87174875 0.48502365 0.06932794 
0.850671 0.52406025 0.041469663 
0.8273207 0.561547 0.014333373 
0.8014227 0.59802204 -0.009560589 
0.77337074 0.6333641 -0.027342673 
0.74417365 0.6669505 -0.037183374 
0.7154005 0.697659 -0.0383945 
0.6888632 0.7242093 -0.03143726 
0.66604286 0.74569017 -0.018250996 
0.6483498 0.7613424 -0.00061320007 
0.63681453 0.7707853 0.018905632 
0.6324464 0.7736077 0.039276626 
0.635449 0.7699007 0.058802262 
0.6456741 0.7596603 0.07759663 
0.66211027 0.74339443 0.09473484 
0.6837157 0.7212873 0.11080423 
0.70925665 0.69373643 0.12523927 
0.73800224 0.66040385 0.13863452 
0.76945376 0.62067795 0.15066455 
0.80345756 0.5729832 0.16169801 
0.8395829 0.51545686 0.1714785 
0.87670463 0.44613385 0.17987132 
0.912475 0.36415118 0.18650317 
0.94364995 0.27039868 0.19081232 
0.9669443 0.16702597 0.19266888 
0.9797497 0.057075057 0.19191968 
0.98027843 -0.05611359 0.1894875 
0.9679499 -0.16861178 0.18612616 
0.94351053 -0.27590296 0.18348145 
0.9100794 -0.37195313 0.18277408 
0.8723885 -0.45237508 0.1851897 
0.83549607 -0.51533705 0.19071992 
0.80439365 -0.55953175 0.19968762 
0.78397506 -0.5836411 0.21153317 
0.77665424 -0.5883224 0.22513318 
0.77980465 -0.5786091 0.2389903 
0.79846936 -0.547092 0.2512709 
0.80521226 -0.5325361 0.26084208 
0 0 0 
0 0 0 
0 0 0 
0 0 0 
0 0 0 
0 0 0 
0 0 0 
0 0 0 
0 0 0 
0 0 0 
0 0 0 
0 0 0 
0 0 0 
0 0 0 
0.9338493 -0.2960172 0.20074695 
0.9488723 -0.24834105 0.19485387 
0.966658 -0.1691438 0.19225666 
0.9777 -0.092923455 0.18832941 
0.98289764 -0.009765128 0.18389404 
0.9816494 0.07151683 0.17677641 
0.9745529 0.14985815 0.16670063 
0.9628986 0.22191179 0.15356259 
0.9480298 0.2870168 0.1373351 
0.9309594 0.34536058 0.11849414 
0.9125999 0.39725778 0.09668307 
0.8932565 0.44363624 0.07266162 
0.8727036 0.48599678 0.046858307 
0.85062504 0.5253459 0.021183318 
0.8267681 0.56253684 -0.0026242668 
0.8013232 0.59783524 -0.021777267 
0.7748711 0.6311868 -0.034324545 
0.7484936 0.6620086 -0.03875446 
0.72350675 0.6894342 -0.03490678 
0.7012645 0.7124991 -0.023942739 
0.68312097 0.7302664 -0.007535998 
0.6701307 0.7421529 0.011572762 
0.6634041 0.7475859 0.03178661 
0.66342175 0.74651605 0.05084654 
0.67042965 0.73879975 0.0685509 
0.68371665 0.72492635 0.083745986 
0.70237947 0.70512843 0.097247235 
0.7250083 0.6801316 0.10855456 
0.75055265 0.65005183 0.11875724 
0.7780701 0.6150617 0.12769544 
0.8071434 0.57440984 0.13628264 
0.837434 0.5271109 0.14442514 
0.86858827 0.4715237 0.15238108 
0.8996973 0.4062197 0.15978219 
0.9291459 0.33030477 0.16609232 
0.95460415 0.24399929 0.17086667 
0.97354937 0.1487211 0.17344628 
0.983612 0.046696577 0.1741463 
0.9831367 -0.05887444 0.17313588 
0.9713363 -0.16430873 0.17178056 
0.9490038 -0.2649337 0.17088592 
0.9185414 -0.35594654 0.17199987 
0.88406754 -0.43312365 0.17558055 
0.850123 -0.49404585 0.18223473 
0.82147413 -0.5370636 0.1916846 
0.8020107 -0.56152296 0.20364374 
0.79396546 -0.5678877 0.21707672 
0.7968749 -0.55825704 0.23095351 
0.8093448 -0.5342474 0.2440098 
0.82396513 -0.505703 0.25562847 
0.844749 -0.46557584 0.26389068 
0.8501188 -0.45113653 0.2716132 
0 0 0 
0 0 0 
0 0 0 
0 0 0 
0 0 0 
0 0 0 
0 0 0 
0 0 0 
0 0 0 
0 0 0 
0 0 0 
0.8986809 -0.38665876 0.20704503 
0.9211275 -0.33362794 0.20054038 
0.9429909 -0.26984558 0.19481198 
0.9624134 -0.19342797 0.19064711 
0.9761568 -0.112106085 0.18587723 
0.9833843 -0.027508702 0.17943972 
0.9838523 0.056240737 0.1699166 
0.97812 0.13636318 0.15711913 
0.9673678 0.21063937 0.14082105 
0.9528637 0.27790016 0.12174702 
0.93576926 0.33814672 0.099963404 
0.9169322 0.39165378 0.07643788 
0.89679575 0.43944985 0.05139265 
0.8754656 0.48255688 0.026435755 
0.85288084 0.5220992 0.0025922607 
0.8291982 0.5586749 -0.017685413 
0.8047626 0.59269375 -0.032732528 
0.7803604 0.62401766 -0.04049198 
0.75693345 0.6522488 -0.040288832 
0.735581 0.6766662 -0.032303236 
0.7174343 0.69639903 -0.01779201 
0.70347804 0.7107166 0.00082460657 
0.6947927 0.7188875 0.021540238 
0.6920314 0.72066945 0.04157275 
0.69577223 0.71574736 0.060057383 
0.7057003 0.70449495 0.07532621 
0.72123367 0.6870746 0.088036925 
0.7410157 0.6643649 0.09754543 
0.7638505 0.6367547 0.105242476 
0.7884353 0.6050137 0.111032136 
0.81402814 0.5690469 0.11637848 
0.8400655 0.5287232 0.121415876 
0.8663509 0.48300672 0.12704605 
0.89258736 0.43077886 0.13310757 
0.9182483 0.37064916 0.13942501 
0.94224495 0.30169287 0.14545095 
0.962981 0.22375 0.1503449 
0.97846603 0.13752623 0.15391855 
0.98678046 0.04485668 0.15573144 
0.986293 -0.05178318 0.1566676 
0.97630334 -0.14884062 0.15709329 
0.95713776 -0.24241255 0.15850417 
0.93077797 -0.3280368 0.16138276 
0.9002945 -0.40206063 0.16678469 
0.86976135 -0.4615628 0.17457119 
0.84315395 -0.50489086 0.18486977 
0.82409406 -0.5311248 0.19691524 
0.8146232 -0.54060745 0.21007784 
0.81498027 -0.5347156 0.22335313 
0.82341015 -0.51605564 0.23597114 
0.83611155 -0.4895934 0.24741843 
0.85035133 -0.4589614 0.25740442 
0.8597875 -0.43522236 0.26710886 
0.8673964 -0.4151908 0.2742995 
0 0 0 
0 0 0 
0 0 0 
0 0 0 
0 0 0 
0 0 0 
0 0 0 
0 0 0 
0 0 0 
0.8567006 -0.4654177 0.22237436 
0.8828295 -0.4192614 0.21173589 
0.91048884 -0.35976818 0.2039045 
0.93624705 -0.2902424 0.19799212 
0.9580444 -0.21201244 0.19287749 
0.97393316 -0.1287392 0.1867629 
0.98306894 -0.04319488 0.17807247 
0.985266 0.04124615 0.16598152 
0.9811207 0.12205085 0.15001942 
0.97161186 0.19712618 0.13081215 
0.957963 0.26554447 0.10859636 
0.9412592 0.32691404 0.08460735 
0.92240626 0.38166472 0.059150502 
0.902015 0.43037826 0.03381818 
0.8804299 0.4740863 0.009240061 
0.85798717 0.5135207 -0.012432081 
0.8350063 0.5494208 -0.03002118 
0.81212276 0.5820238 -0.04129087 
0.7900217 0.6113988 -0.04535754 
0.7695909 0.63719 -0.04145893 
0.751686 0.6588261 -0.030274604 
0.737133 0.67561436 -0.013427638 
0.7268437 0.68676674 0.0070520006 
0.72149956 0.6918391 0.028234081 
0.7218648 0.6903311 0.0485207 
0.7280157 0.6824154 0.06559174 
0.7398181 0.66808957 0.079533644 
0.7562206 0.64819586 0.089289345 
0.77613574 0.62317926 0.096234776 
0.7980765 0.594175 0.10014968 
0.8210289 0.56154394 0.102859184 
0.8440867 0.5259062 0.10459549 
0.86689305 0.48689076 0.10692933 
0.8892172 0.44405943 0.110017955 
0.911008 0.39621472 0.11436009 
0.93199176 0.34219745 0.11955126 
0.9515642 0.28092244 0.12493268 
0.96861225 0.21185938 0.1300234 
0.98168796 0.13540447 0.13399361 
0.9891418 0.05265108 0.13720946 
0.9896271 -0.034199543 0.13952953 
0.98222494 -0.12248924 0.14223464 
0.9670995 -0.20860447 0.14561193 
0.9453568 -0.2889856 0.15095682 
0.91945225 -0.35996053 0.15822823 
0.89240813 -0.41882065 0.1679193 
0.8678095 -0.46340883 0.17932928 
0.8487137 -0.49273002 0.19209932 
0.8373901 -0.5066087 0.20524487 
0.8343783 -0.5061873 0.21814492 
0.83859324 -0.49375218 0.23015265 
0.847378 -0.4731253 0.24104603 
0.8577423 -0.44859844 0.25107312 
0.8664936 -0.4255181 0.26100412 
0.8730856 -0.40540236 0.27086985 
0.8765481 -0.39231881 0.27883607 
0 0 0 
0 0 0 
0 0 0 
0 0 0 
0 0 0 
0 0 0 
0 0 0 
0.8123039 -0.5276373 0.24851808 
0.839826 -0.4907076 0.23216046 
0.87049955 -0.44024152 0.22004084 
0.9012724 -0.37809983 0.21153879 
0.92956746 -0.3063138 0.20512475 
0.95331514 -0.22717783 0.19894843 
0.9710361 -0.14349116 0.19104804 
0.9819269 -0.05829849 0.18005805 
0.9859543 0.02566546 0.16503207 
0.98356545 0.10590431 0.14623094 
0.97567475 0.18086775 0.12387766 
0.96328396 0.24944861 0.099295706 
0.9474618 0.31144133 0.07294311 
0.9291247 0.36683133 0.04649809 
0.90903324 0.41622075 0.020464232 
0.8878427 0.46013638 -0.003125892 
0.8660653 0.49937832 -0.023499675 
0.84436524 0.534387 -0.038443018 
0.82333016 0.5655989 -0.04717495 
0.8037303 0.5930325 -0.048270997 
0.78619874 0.6165504 -0.04192013 
0.77138996 0.63571477 -0.028713142 
0.7599511 0.64989823 -0.010322868 
0.75244904 0.6585632 0.010726222 
0.74962246 0.6610737 0.032370504 
0.7517982 0.65735424 0.05181636 
0.7592644 0.64718527 0.06832818 
0.7714425 0.6312205 0.08023252 
0.7876145 0.60977995 0.088498 
0.80639607 0.5840866 0.09256498 
0.82669145 0.5546913 0.09433328 
0.8473061 0.5227353 0.093916684 
0.86761945 0.4883878 0.093349166 
0.8871641 0.45198798 0.09298731 
0.905914 0.41287017 0.094117716 
0.9238811 0.3702687 0.09666842 
0.94108254 0.3228834 0.10054838 
0.9572098 0.26958048 0.10524184 
0.9715826 0.20966002 0.10986357 
0.98309404 0.14299719 0.114359185 
0.9904915 0.07046465 0.11815791 
0.99248284 -0.006601731 0.12220555 
0.9882432 -0.085857496 0.12650636 
0.977409 -0.16471805 0.1324374 
0.9606664 -0.23985276 0.13996683 
0.9394167 -0.30824184 0.14994454 
0.9161113 -0.36686486 0.16171044 
0.8934578 -0.41359645 0.17513181 
0.8743987 -0.44685513 0.18907027 
0.8610537 -0.4662644 0.20293888 
0.8545123 -0.4724336 0.21590608 
0.85425067 -0.46737054 0.22764155 
0.85849637 -0.4542037 0.23808175 
0.8648078 -0.43680048 0.24761456 
0.8707388 -0.41915107 0.25715077 
0.87480676 -0.40400907 0.26737592 
0.8758055 -0.3942012 0.27851418 
0.87258345 -0.3938523 0.2889268 
0 0 0 
0 0 0 
0 0 0 
0 0 0 
0 0 0 
0.769636 -0.5716021 0.28448483 
0.79636276 -0.54497814 0.2623074 
0.8275855 -0.50521064 0.24467206 
0.8607321 -0.45317727 0.2318852 
0.8933567 -0.39018095 0.22287379 
0.92315114 -0.31824994 0.2156595 
0.9482911 -0.23964614 0.20811966 
0.96744466 -0.15720953 0.19833323 
0.9800129 -0.073576175 0.18482763 
0.9858832 0.008586786 0.16721447 
0.9854965 0.08739802 0.14545926 
0.9794943 0.16127576 0.120752536 
0.968791 0.22948833 0.093697414 
0.9543032 0.291452 0.066038944 
0.93700343 0.34721407 0.038300168 
0.9178082 0.39682797 0.012476184 
0.8975263 0.440827 -0.0108739 
0.87699676 0.47958502 -0.02958057 
0.8568936 0.5136901 -0.04307922 
0.8380004 0.5434113 -0.049593195 
0.8208599 0.56901735 -0.049074657 
0.806032 0.59043866 -0.041164313 
0.7939135 0.6074301 -0.02701948 
0.7848832 0.619588 -0.008308534 
0.77946097 0.6263185 0.012879389 
0.77800745 0.6273483 0.03374094 
0.7810317 0.6222559 0.05279264 
0.7884099 0.6114073 0.067756996 
0.7999261 0.59489274 0.07887302 
0.81456774 0.5737996 0.08504966 
0.8314362 0.54861885 0.08792693 
0.8492658 0.5206983 0.0872982 
0.86726487 0.49047446 0.08536199 
0.8846564 0.45890158 0.08241662 
0.90120596 0.42587385 0.08036917 
0.9168087 0.39134398 0.0794463 
0.9316633 0.35432416 0.08036144 
0.945889 0.31374338 0.08282072 
0.9594467 0.26835907 0.08628692 
0.97191346 0.2172502 0.090480365 
0.9825402 0.16019554 0.09461625 
0.990282 0.097410396 0.09926166 
0.99411243 0.030001577 0.10411717 
0.99304324 -0.040686447 0.110497504 
0.98659456 -0.11239186 0.118318245 
0.9746984 -0.18272364 0.12874474 
0.9582406 -0.24866156 0.141218 
0.93866944 -0.30754703 0.15593131 
0.91829395 -0.35677835 0.17159712 
0.89946675 -0.39467597 0.18759124 
0.8844659 -0.42027736 0.20269977 
0.8745449 -0.4339599 0.21644877 
0.8698548 -0.43722984 0.2284352 
0.8692865 -0.4328228 0.2387583 
0.8709817 -0.42414817 0.24797024 
0.87292266 -0.41472405 0.25692442 
0.8733499 -0.4075117 0.26682213 
0.87091815 -0.40493745 0.27843738 
0.8645064 -0.40914938 0.29193407 
0.8532797 -0.42286655 0.3051192 
0 0 0 
0 0 0 
0 0 0 
0.73351043 -0.5974866 0.3239942 
0.75646615 -0.5817548 0.29886523 
0.7858858 -0.55307496 0.27657133 
0.8189654 -0.5121016 0.25893557 
0.8533094 -0.459698 0.24605082 
0.886684 -0.397313 0.23650381 
0.91711164 -0.3267509 0.2283424 
0.9429727 -0.25038725 0.21933733 
0.9632255 -0.17061183 0.20757745 
0.9772772 -0.09001716 0.1919014 
0.9850839 -0.010610754 0.17174767 
0.9868227 0.06577211 0.14783399 
0.98303074 0.13807483 0.12077227 
0.9743345 0.20530388 0.092318885 
0.96161795 0.26702935 0.06313667 
0.94582844 0.3227523 0.035208434 
0.92798704 0.3725035 0.009017864 
0.9091342 0.41629103 -0.013301998 
0.89016116 0.45456553 -0.03135808 
0.87198293 0.4876253 -0.043213755 
0.8552136 0.5159728 -0.048803434 
0.84044427 0.5398475 -0.047095764 
0.8279512 0.5594544 -0.03882924 
0.8179757 0.57472396 -0.024661493 
0.810748 0.58536077 -0.0063619376 
0.8064878 0.5910899 0.01378829 
0.8056498 0.59142107 0.033904135 
0.8083651 0.58643264 0.051407095 
0.81483454 0.57595724 0.065711156 
0.82453567 0.5607994 0.075134054 
0.83698076 0.5412429 0.080743894 
0.8511069 0.5185719 0.081855774 
0.86617726 0.4932072 0.080521114 
0.88124394 0.46639022 0.0767416 
0.8958594 0.43834475 0.07273212 
0.90961903 0.4097106 0.06877906 
0.92259127 0.38003135 0.06634548 
0.93491167 0.34879395 0.06544448 
0.9468527 0.31477672 0.066223405 
0.9584818 0.27681938 0.068437114 
0.96961284 0.23398629 0.0714248 
0.9797067 0.18569696 0.075442314 
0.98800814 0.13208145 0.07996477 
0.99357474 0.07344938 0.08610732 
0.9955442 0.010883722 0.09366584 
0.99309003 -0.05435525 0.104008794 
0.9858816 -0.120077305 0.11670013 
0.97397906 -0.18395707 0.13238041 
0.9583569 -0.24312545 0.14980648 
0.940483 -0.29514015 0.16847578 
0.92250144 -0.33781782 0.18673608 
0.9063645 -0.3700686 0.20384473 
0.8936483 -0.3917623 0.21889521 
0.8848538 -0.4041454 0.23173334 
0.87950206 -0.4094883 0.24247761 
0.8762951 -0.41082543 0.25165367 
0.87351656 -0.41133285 0.26033482 
0.8695548 -0.41372633 0.26963866 
0.86294216 -0.42004427 0.28088048 
0.8526925 -0.4314513 0.29455945 
0.83833 -0.44837976 0.31009418 
0.82035804 -0.47122633 0.32397282 
0 0 0 
0 0 0 
0.7255356 -0.60428435 0.32930022 
0.74922806 -0.5852261 0.31010935 
0.77995324 -0.55461824 0.28995124 
0.81371933 -0.5129823 0.27333143 
0.84815043 -0.4612216 0.26060608 
0.8812777 -0.40062302 0.25070107 
0.91145223 -0.33301795 0.24156569 
0.9374315 -0.26034373 0.23117803 
0.9583393 -0.1848512 0.21775204 
0.97375333 -0.108420655 0.20012383 
0.98344123 -0.032903165 0.17821571 
0.98749954 0.040513914 0.15232663 
0.9860967 0.11063951 0.12398542 
0.9797521 0.17675632 0.094037615 
0.9691384 0.23792993 0.06450035 
0.95523864 0.2936452 0.03594131 
0.93915385 0.34333763 0.010458464 
0.9219977 0.3870205 -0.011634083 
0.90487444 0.4247341 -0.02834141 
0.88860226 0.45696017 -0.039668284 
0.8739195 0.48405656 -0.044203393 
0.8611582 0.5065587 -0.04248343 
0.8505612 0.5247562 -0.034300867 
0.8421643 0.5388118 -0.021003816 
0.8360121 0.54869646 -0.00400313 
0.8323173 0.55410117 0.014827732 
0.831212 0.5549702 0.033089798 
0.8330532 0.5509684 0.049561042 
0.8377143 0.54256344 0.06212633 
0.84515315 0.52977407 0.07110338 
0.85469246 0.5136497 0.07526527 
0.8658718 0.49442396 0.07623058 
0.8778142 0.47332257 0.07353979 
0.89003396 0.45058355 0.06938359 
0.9018863 0.42723167 0.06382935 
0.9132111 0.40321857 0.058824603 
0.92389536 0.37873918 0.054533668 
0.93419486 0.35297015 0.05188658 
0.94432884 0.32504967 0.050850827 
0.9544925 0.29379788 0.0512537 
0.9646148 0.25823382 0.053231563 
0.97436935 0.2178085 0.056249287 
0.9831724 0.17213652 0.061164346 
0.990295 0.12141374 0.06763545 
0.9948491 0.06587006 0.07704797 
0.99600774 0.0065569645 0.08902665 
0.99297976 -0.05517984 0.10462545 
0.98550403 -0.11704074 0.12281452 
0.9737618 -0.17662042 0.14350343 
0.95884156 -0.231186 0.16485146 
0.9422212 -0.2786489 0.18594074 
0.92579114 -0.31749076 0.20520821 
0.9110076 -0.34745514 0.22212636 
0.898762 -0.36932322 0.23627804 
0.88899624 -0.38503355 0.24786052 
0.88088715 -0.39715022 0.25750658 
0.8731492 -0.40840355 0.26611495 
0.86427224 -0.4211143 0.27512977 
0.8530225 -0.4367161 0.2857126 
0.8385024 -0.45558798 0.29892004 
0.82093155 -0.47669172 0.31438258 
0.80327314 -0.49639112 0.32916284 
0 0 0 
0.7062738 -0.6041905 0.36895958 
0.7219693 -0.60067993 0.34342983 
0.7472719 -0.5817084 0.32124782 
0.7783378 -0.55053514 0.30183047 
0.81174135 -0.5091868 0.28601524 
0.84520805 -0.4590221 0.2737192 
0.87711227 -0.40153793 0.26351756 
0.9062182 -0.3382443 0.25369176 
0.9316467 -0.27087593 0.24219975 
0.95282835 -0.20092525 0.22748008 
0.9693243 -0.12994769 0.2086241 
0.9808993 -0.059009675 0.18534967 
0.98729086 0.010744117 0.15856051 
0.98852104 0.07854524 0.12906115 
0.984737 0.14327583 0.09881932 
0.9765544 0.20403397 0.06864256 
0.96483946 0.25967646 0.04065819 
0.950751 0.30958062 0.015248293 
0.93551815 0.35323462 -0.0055738096 
0.92022324 0.39078316 -0.021859264 
0.9058267 0.42243665 -0.03202159 
0.8928708 0.4488252 -0.036576096 
0.8817447 0.4704452 -0.03475201 
0.8724798 0.48787025 -0.02759939 
0.86505973 0.50142574 -0.015622096 
0.8594562 0.51120925 -0.00041756348 
0.85565794 0.5172869 0.01623949 
0.85390663 0.51938814 0.032855485 
0.8542275 0.51774764 0.047252424 
0.8568546 0.5121666 0.059040286 
0.861502 0.50337625 0.06653489 
0.86808044 0.49135968 0.070725694 
0.8759825 0.47714436 0.07062529 
0.88490343 0.46076882 0.06810336 
0.8941722 0.44329816 0.062792614 
0.90351635 0.42477605 0.056777325 
0.91254354 0.40589827 0.050108902 
0.92131555 0.38628027 0.04433202 
0.9299049 0.3656624 0.03959824 
0.9386094 0.34305054 0.036451805 
0.94760066 0.31752208 0.03511178 
0.9569256 0.28817222 0.035360556 
0.9663989 0.2542416 0.037875723 
0.9756192 0.21535878 0.042282745 
0.9839912 0.17110728 0.04983743 
0.9907525 0.12162335 0.06014409 
0.99495625 0.06718923 0.074482135 
0.9957157 0.009056204 0.09202355 
0.9922548 -0.051125977 0.11320993 
0.98443705 -0.11087795 0.13634491 
0.9726302 -0.16782604 0.16070127 
0.95803213 -0.2196267 0.18422422 
0.9420274 -0.26486367 0.20598973 
0.9261166 -0.30290076 0.22485384 
0.91122305 -0.33432588 0.24062183 
0.89766556 -0.36054397 0.25338656 
0.88503176 -0.3836435 0.2636978 
0.8723479 -0.40577245 0.2726866 
0.85848176 -0.42865387 0.28154033 
0.8422987 -0.45315793 0.29185775 
0.8232656 -0.47901133 0.30460143 
0.80158323 -0.50481516 0.32035282 
0.77885026 -0.5283045 0.33806315 
0.754815 -0.5520711 0.3542201 
0.70405453 -0.60723984 0.3681944 
0.72299504 -0.5963009 0.34886032 
0.7498148 -0.57449305 0.32823086 
0.78068537 -0.5425794 0.3100615 
0.8128192 -0.5020817 0.2953627 
0.8443921 -0.4545478 0.2835281 
0.87415475 -0.4013608 0.27342826 
0.9013933 -0.34386334 0.26315075 
0.9256515 -0.28309274 0.2510536 
0.94659543 -0.22005776 0.23565155 
0.9639225 -0.15540135 0.21611059 
0.9771748 -0.089901336 0.19247657 
0.98597366 -0.024103247 0.16515186 
0.9898992 0.041008357 0.13571267 
0.9889565 0.104461014 0.10513316 
0.9834317 0.16476773 0.075589 
0.9741726 0.22070388 0.04772328 
0.96228063 0.27103227 0.02361208 
0.9490051 0.3152437 0.0032854578 
0.93552285 0.3530762 -0.011590325 
0.9226883 0.38494354 -0.021561144 
0.91114044 0.41130129 -0.02557997 
0.9010952 0.43292302 -0.024602123 
0.89264095 0.45039073 -0.01844922 
0.88567203 0.4642349 -0.008427149 
0.8800751 0.47481313 0.0045166607 
0.87586224 0.4821887 0.018963441 
0.87299466 0.48660415 0.033118393 
0.871705 0.48785388 0.046141908 
0.8719294 0.4864011 0.056154203 
0.8738619 0.48201314 0.063472845 
0.8772258 0.4754303 0.066639714 
0.8820213 0.46642247 0.066996366 
0.88776857 0.45587087 0.06362997 
0.8943005 0.443636 0.058427695 
0.90111643 0.43055984 0.0510645 
0.9081255 0.4164445 0.043381456 
0.9151373 0.40157592 0.03550468 
0.92233515 0.38532627 0.028666917 
0.92985284 0.36719608 0.023255337 
0.9379185 0.3462978 0.01966423 
0.94661546 0.32183012 0.018565066 
0.95586956 0.29312363 0.019799443 
0.9654449 0.2594563 0.024469132 
0.97487175 0.22043084 0.03217769 
0.9834673 0.17560303 0.044222903 
0.9903187 0.12523672 0.05987235 
0.9943409 0.06994596 0.07996157 
0.9946108 0.01135977 0.103055716 
0.99046534 -0.048586715 0.1289104 
0.98199314 -0.1074486 0.15538482 
0.9697576 -0.16323185 0.18145433 
0.95495474 -0.21430664 0.20526613 
0.93872744 -0.26009515 0.22614466 
0.922109 -0.30072325 0.2434761 
0.9055435 -0.33723098 0.2574224 
0.8889321 -0.37100357 0.268619 
0.87170404 -0.40353665 0.27801162 
0.8529785 -0.43585673 0.2871527 
0.8320902 -0.46820933 0.29733136 
0.80872804 -0.49989736 0.30993792 
0.78360337 -0.5293209 0.32524627 
0.7586042 -0.5543671 0.34234008 
0.7379245 -0.5726958 0.35705322 
0.7091058 -0.60287225 0.36566928 
0.7293452 -0.5882936 0.34923673 
0.7567637 -0.56396544 0.33053255 
0.7866943 -0.53158104 0.31390074 
0.8167755 -0.4927109 0.3001897 
0.8455434 -0.44885758 0.2891077 
0.8723572 -0.40130508 0.27919066 
0.8969598 -0.350875 0.26897952 
0.91937405 -0.298065 0.2567267 
0.9395607 -0.24293727 0.24126188 
0.95724946 -0.18559417 0.22187452 
0.9719828 -0.12602876 0.19840926 
0.9830213 -0.06473211 0.17169428 
0.98978794 -0.0023766938 0.14252846 
0.99181527 0.059626702 0.11290302 
0.9892612 0.11976879 0.08377125 
0.9826843 0.17619315 0.057337593 
0.9731658 0.22759257 0.0339136 
0.96191525 0.2729213 0.0152687 
0.95007753 0.3120126 0.000916205 
0.9385836 0.34495962 -0.007982041 
0.92797077 0.3724463 -0.0124171255 
0.9185686 0.39508426 -0.011839641 
0.9104009 0.41366082 -0.007422577 
0.9034119 0.42877337 0.0006138958 
0.89748585 0.44090435 0.011070003 
0.89247113 0.45052558 0.022848649 
0.8884108 0.45771268 0.035005458 
0.88523215 0.4628833 0.045860082 
0.8831822 0.46576998 0.055205587 
0.8822083 0.4668503 0.06131425 
0.8825781 0.4656637 0.064910956 
0.88410616 0.46280366 0.06456997 
0.8868901 0.45783758 0.06173189 
0.89055645 0.45147124 0.05552316 
0.8950571 0.4433908 0.047724307 
0.9000463 0.43412146 0.038147837 
0.9055626 0.42325678 0.028462864 
0.91152865 0.4107927 0.019103426 
0.9181381 0.3961025 0.011189053 
0.9255131 0.37867525 0.0055312444 
0.9337852 0.35782558 0.0024947051 
0.9429886 0.3328105 0.0031444617 
0.9529607 0.3030072 0.0072488226 
0.96338594 0.26763967 0.016019499 
0.9736208 0.22635093 0.02877357 
0.98276544 0.17891191 0.04650547 
0.9897043 0.12596245 0.0679622 
0.99326867 0.068555415 0.09336788 
0.9926438 0.0085961865 0.12076611 
0.9874056 -0.052000117 0.14941967 
0.97788846 -0.11119487 0.17711526 
0.9647457 -0.16768387 0.20284945 
0.94900745 -0.22060129 0.22521067 
0.93147475 -0.26996702 0.2438704 
0.91272515 -0.3161457 0.25881425 
0.89285576 -0.35993755 0.2706543 
0.8715884 -0.40197426 0.28062502 
0.84852487 -0.44258502 0.29004154 
0.82332 -0.4814173 0.30063543 
0.7962358 -0.51745754 0.31344262 
0.76821035 -0.5491354 0.32909453 
0.741542 -0.5745509 0.3464201 
0.7211078 -0.591036 0.36149696 
0.72110736 -0.5910365 0.36149716 
0.7415414 -0.5745513 0.3464207 
0.7682099 -0.5491359 0.32909465 
0.79623556 -0.5174576 0.31344312 
0.8233197 -0.4814176 0.30063584 
0.8485246 -0.44258532 0.29004204 
0.8715882 -0.4019749 0.28062484 
0.8928553 -0.35993806 0.270655 
0.91272473 -0.31614694 0.25881392 
0.9314745 -0.26996765 0.24387021 
0.9490075 -0.22060178 0.22521049 
0.9647457 -0.16768444 0.20284885 
0.9778885 -0.11119499 0.17711487 
0.98740554 -0.05200034 0.14941972 
0.99264383 0.008595881 0.12076615 
0.9932687 0.068554394 0.09336788 
0.98970443 0.12596199 0.067962095 
0.9827655 0.17891167 0.046505366 
0.9736206 0.2263516 0.028773325 
0.96338606 0.26763934 0.016019693 
0.9529608 0.30300722 0.0072483863 
0.9429885 0.33281037 0.003144254 
0.93378526 0.35782546 0.002495103 
0.925513 0.37867525 0.0055314023 
0.91813827 0.3961023 0.011189181 