# OOMMF OVF 2.0
# Segment count: 1
# Begin: Segment
# Begin: Header
# Title: m
# meshtype: rectangular
# meshunit: m
# xmin: 0
# ymin: 0
# zmin: 0
# xmax: 1.6e-07
# ymax: 8e-08
# zmax: 5e-09
# valuedim: 3
# valuelabels: m_x m_y m_z
# valueunits: 1 1 1
# Desc: Total simulation time:  1.001131843234896e-10  s
# xbase: 1.25e-09
# ybase: 1.25e-09
# zbase: 2.5e-09
# xnodes: 64
# ynodes: 32
# znodes: 1
# xstepsize: 2.5e-09
# ystepsize: 2.5e-09
# zstepsize: 5e-09
# End: Header
# Begin: Data Text
0 0 0 
0 0 0 
0 0 0 
0 0 0 
0 0 0 
0 0 0 
0 0 0 
0 0 0 
0 0 0 
0 0 0 
0 0 0 
0 0 0 
0 0 0 
0 0 0 
0 0 0 
0 0 0 
0 0 0 
0 0 0 
0 0 0 
0 0 0 
0 0 0 
0 0 0 
0 0 0 
0 0 0 
0.995513 0.0572573 0.07533653 
0.9956816 0.06295915 0.0682227 
0.996006 0.06856933 0.057186473 
0.9964367 0.07233906 0.04337169 
0.9968486 0.07431595 0.027750146 
0.99711037 0.07509712 0.011463442 
0.9971686 0.07502731 -0.0050718943 
0.9969928 0.07422875 -0.022257714 
0.99653894 0.07290839 -0.03993333 
0.99579966 0.07142792 -0.05728278 
0.9947907 0.07001772 -0.074088775 
0.99349517 0.06885285 -0.090701394 
0.9919259 0.06849444 -0.10673108 
0.9901705 0.07000885 -0.12108345 
0.98836637 0.07404165 -0.1328524 
0.98681056 0.07961364 -0.14094868 
0 0 0 
0 0 0 
0 0 0 
0 0 0 
0 0 0 
0 0 0 
0 0 0 
0 0 0 
0 0 0 
0 0 0 
0 0 0 
0 0 0 
0 0 0 
0 0 0 
0 0 0 
0 0 0 
0 0 0 
0 0 0 
0 0 0 
0 0 0 
0 0 0 
0 0 0 
0 0 0 
0 0 0 
0 0 0 
0 0 0 
0 0 0 
0 0 0 
0 0 0 
0 0 0 
0 0 0 
0 0 0 
0 0 0 
0 0 0 
0 0 0 
0 0 0 
0 0 0 
0 0 0 
0 0 0 
0 0 0 
0 0 0 
0 0 0 
0.99791396 -0.02102598 0.06103844 
0.99791235 -0.010479354 0.06372633 
0.9976928 0.0012622394 0.06787927 
0.9973524 0.0120025445 0.07172259 
0.997024 0.02107123 0.0741569 
0.9967757 0.029594943 0.07458235 
0.9962689 0.046264168 0.072855465 
0.99600023 0.06009231 0.06612565 
0.996075 0.0690198 0.055415757 
0.9963652 0.0740292 0.042143743 
0.99669564 0.07656711 0.02711587 
0.9969416 0.0773227 0.011343012 
0.9970105 0.07711757 -0.004791164 
0.9968595 0.07617982 -0.021627871 
0.99644834 0.074765146 -0.038742013 
0.99576664 0.0731033 -0.0557212 
0.9948338 0.071471795 -0.072093934 
0.99363506 0.07013456 -0.08815161 
0.99216014 0.07004958 -0.1034956 
0.9904984 0.072113715 -0.11710088 
0.9887178 0.07769288 -0.12806664 
0.9871047 0.086619124 -0.13461575 
0.9865049 0.09325572 -0.13457914 
0.9864644 0.09457267 -0.13395512 
0.9863461 0.09849732 -0.13198394 
0.98599154 0.10569058 -0.12903593 
0.985265 0.115492545 -0.12615255 
0.9841362 0.1259352 -0.12496548 
0 0 0 
0 0 0 
0 0 0 
0 0 0 
0 0 0 
0 0 0 
0 0 0 
0 0 0 
0 0 0 
0 0 0 
0 0 0 
0 0 0 
0 0 0 
0 0 0 
0 0 0 
0 0 0 
0 0 0 
0 0 0 
0 0 0 
0 0 0 
0 0 0 
0 0 0 
0 0 0 
0 0 0 
0 0 0 
0 0 0 
0 0 0 
0 0 0 
0 0 0 
0 0 0 
0 0 0 
0 0 0 
0 0 0 
0.99510944 -0.0910203 0.03837494 
0.99616325 -0.07711602 0.041375957 
0.99706674 -0.060548093 0.04681818 
0.9978487 -0.036238175 0.054633226 
0.9980723 -0.015985144 0.059967518 
0.99789596 -0.00016379861 0.064835586 
0.99753964 0.012548446 0.06897299 
0.99715745 0.02345231 0.071602814 
0.99680483 0.034361828 0.07210748 
0.9964094 0.047958955 0.06977396 
0.9961409 0.060887795 0.06321493 
0.99612594 0.070099436 0.053096868 
0.99629587 0.0758972 0.040425166 
0.9965602 0.07857338 0.026346158 
0.99678195 0.079357214 0.011321019 
0.99686825 0.07895885 -0.004397263 
0.99673384 0.07804852 -0.020739535 
0.99634683 0.07674377 -0.03746313 
0.995719 0.075067915 -0.053931385 
0.9948698 0.073158674 -0.069871165 
0.9937844 0.071707346 -0.08515011 
0.9924706 0.071468875 -0.09947052 
0.99093574 0.0737175 -0.11230381 
0.9893632 0.07853248 -0.12244682 
0.9879718 0.08560682 -0.12877564 
0.98720753 0.09154285 -0.13054256 
0.98688865 0.09570448 -0.1299673 
0.9866279 0.10128625 -0.12769696 
0.9861411 0.10993709 -0.12425675 
0.98513556 0.12261051 -0.12031129 
0.9833967 0.13969195 -0.11583246 
0.98138565 0.15873773 -0.1080953 
0.9794457 0.17269197 -0.10422864 
0.97707933 0.18616652 -0.103237495 
0 0 0 
0 0 0 
0 0 0 
0 0 0 
0 0 0 
0 0 0 
0 0 0 
0 0 0 
0 0 0 
0 0 0 
0 0 0 
0 0 0 
0 0 0 
0 0 0 
0 0 0 
0 0 0 
0 0 0 
0 0 0 
0 0 0 
0 0 0 
0 0 0 
0 0 0 
0 0 0 
0 0 0 
0 0 0 
0 0 0 
0 0 0 
0.9889349 -0.14622699 0.025012905 
0.9906373 -0.13378274 0.027203374 
0.99220425 -0.120789774 0.030671783 
0.99421775 -0.10138325 0.03539176 
0.99600625 -0.07991291 0.039820235 
0.997241 -0.059056126 0.044976115 
0.9980102 -0.03723566 0.05088511 
0.9982747 -0.016898861 0.05623382 
0.9981151 -3.5173152e-06 0.061369784 
0.997751 0.014239115 0.06549977 
0.9973212 0.02647138 0.06818916 
0.99689984 0.038418226 0.06866488 
0.9965107 0.050931983 0.06612427 
0.99626696 0.06211729 0.05994694 
0.99621856 0.07087208 0.05025709 
0.99633986 0.076306276 0.038525745 
0.99653834 0.07920618 0.025255296 
0.99673986 0.079924725 0.011033055 
0.99680495 0.07977034 -0.004089305 
0.9966576 0.079208635 -0.019993342 
0.9962687 0.07838822 -0.036111627 
0.99566305 0.07704543 -0.0521448 
0.9948701 0.07535404 -0.06749343 
0.9938984 0.0737843 -0.081986755 
0.9927038 0.07363413 -0.09548377 
0.9913728 0.07525017 -0.1073197 
0.9899626 0.07931815 -0.116974026 
0.9887748 0.08479252 -0.1230235 
0.9879391 0.09081796 -0.12541379 
0.9874435 0.09659593 -0.12499812 
0.98704344 0.10349366 -0.12261469 
0.98641366 0.11323881 -0.11901767 
0.9853665 0.12617642 -0.114597075 
0.98366135 0.14248413 -0.110039175 
0.98155195 0.15980712 -0.10496422 
0.9789882 0.17700334 -0.10125316 
0.9758119 0.19512954 -0.09856777 
0.9730684 0.20983545 -0.09543064 
0.97067744 0.22091052 -0.09478383 
0.9676954 0.23333645 -0.095497966 
0 0 0 
0 0 0 
0 0 0 
0 0 0 
0 0 0 
0 0 0 
0 0 0 
0 0 0 
0 0 0 
0 0 0 
0 0 0 
0 0 0 
0 0 0 
0 0 0 
0 0 0 
0 0 0 
0 0 0 
0 0 0 
0 0 0 
0 0 0 
0 0 0 
0 0 0 
0.98387283 -0.1786261 0.009327119 
0.9852919 -0.17034422 0.01352097 
0.9877554 -0.15471095 0.020095455 
0.9904309 -0.13580522 0.02457059 
0.99259377 -0.118028134 0.028759355 
0.9945655 -0.09864752 0.033289883 
0.99629253 -0.07725194 0.037859004 
0.9975158 -0.055817116 0.0429736 
0.99824417 -0.034525096 0.048132364 
0.99845505 -0.015189315 0.053450443 
0.99829644 0.0019020371 0.058314998 
0.99792176 0.016276024 0.062348105 
0.9974798 0.029107703 0.064706154 
0.99704456 0.041128937 0.06488824 
0.99667454 0.05259027 0.0622436 
0.9964464 0.06272254 0.05621968 
0.9964005 0.070289075 0.04738884 
0.99648595 0.07550986 0.036251724 
0.996662 0.078081205 0.02383827 
0.99680793 0.07919199 0.010135802 
0.9968325 0.079410255 -0.0043572197 
0.9966378 0.07959055 -0.019451646 
0.9962246 0.07953838 -0.034788676 
0.9956232 0.078953266 -0.050008856 
0.9948748 0.07767519 -0.064737335 
0.9939527 0.07654769 -0.07873158 
0.9929003 0.0761067 -0.09141514 
0.9916872 0.07754513 -0.102680616 
0.9904923 0.08056484 -0.111509934 
0.9893916 0.08543142 -0.11749801 
0.9885569 0.0911729 -0.12017835 
0.98794633 0.09756349 -0.12018055 
0.9874073 0.10518524 -0.1181647 
0.98674554 0.11485455 -0.11463744 
0.9856583 0.12758702 -0.11045034 
0.9840897 0.14260189 -0.10598257 
0.98193264 0.15946862 -0.10187268 
0.97935766 0.17670903 -0.09814583 
0.9763569 0.19405156 -0.09524271 
0.9734337 0.2093922 -0.09263855 
0.9702758 0.22424759 -0.09098244 
0.96648705 0.24067423 -0.08932341 
0.9636594 0.25305367 -0.08558293 
0.96161044 0.26094833 -0.08491959 
0 0 0 
0 0 0 
0 0 0 
0 0 0 
0 0 0 
0 0 0 
0 0 0 
0 0 0 
0 0 0 
0 0 0 
0 0 0 
0 0 0 
0 0 0 
0 0 0 
0 0 0 
0 0 0 
0 0 0 
0 0 0 
0.98293257 -0.18396486 -0.0006829732 
0.98326206 -0.18219087 0.0015319634 
0.983964 -0.17826487 0.006038392 
0.98607177 -0.16596186 0.01091861 
0.98859036 -0.1497374 0.016369084 
0.9911777 -0.13081904 0.021290347 
0.99339086 -0.11175882 0.0261664 
0.9952793 -0.092016846 0.030856764 
0.99679387 -0.07158773 0.035740964 
0.99788296 -0.050752193 0.0406686 
0.99846864 -0.030757397 0.045983043 
0.99862146 -0.012158829 0.051063836 
0.9984308 0.0038736851 0.055866096 
0.9980752 0.018189048 0.059287526 
0.99764806 0.030792719 0.06123989 
0.99723196 0.04257723 0.06095593 
0.9968862 0.05331411 0.058100764 
0.9966755 0.062265743 0.052545264 
0.99661666 0.06929217 0.044203904 
0.9966985 0.07372061 0.034020677 
0.9968287 0.0764897 0.021954147 
0.9969336 0.07774835 0.008871733 
0.9968905 0.07863754 -0.005067268 
0.99665785 0.07940064 -0.01920253 
0.9962282 0.08006886 -0.03344079 
0.99564385 0.08011668 -0.047694597 
0.99490535 0.07960426 -0.061858896 
0.9940489 0.07876578 -0.07525192 
0.99303895 0.0787049 -0.08763158 
0.99199516 0.07960225 -0.09802663 
0.9908924 0.08245327 -0.10646037 
0.9899093 0.08667068 -0.11210597 
0.9890498 0.0923257 -0.11513741 
0.9883382 0.09895958 -0.11573559 
0.98772115 0.106575824 -0.114230216 
0.9869647 0.116154 -0.111396186 
0.985989 0.12767182 -0.10735768 
0.9844942 0.141821 -0.103238136 
0.9825604 0.15734418 -0.09908559 
0.980137 0.17379412 -0.09553567 
0.97744596 0.18997435 -0.092245825 
0.97452295 0.20569059 -0.08942271 
0.9713485 0.22123615 -0.08681394 
0.96783805 0.2369403 -0.08455024 
0.96473396 0.2500617 -0.08220541 
0.9621938 0.26000953 -0.08110621 
0.9617799 0.2615918 -0.08092685 
0.9609951 0.26369402 -0.08338982 
0 0 0 
0 0 0 
0 0 0 
0 0 0 
0 0 0 
0 0 0 
0 0 0 
0 0 0 
0 0 0 
0 0 0 
0 0 0 
0 0 0 
0 0 0 
0 0 0 
0.9841983 -0.17697236 -0.0058891787 
0.98392826 -0.17851233 -0.004319707 
0.9835837 -0.18043937 -0.0021723204 
0.9845625 -0.17503385 7.019703e-05 
0.98590684 -0.16725574 0.0036355734 
0.9879018 -0.1548731 0.008018973 
0.9902103 -0.13896647 0.013111143 
0.9924661 -0.12113 0.01840105 
0.9944597 -0.10244634 0.023553265 
0.9960963 -0.0835099 0.028607804 
0.9973835 -0.0641617 0.033308424 
0.99824804 -0.045067254 0.038340498 
0.9987148 -0.026329827 0.043306164 
0.99877626 -0.009483407 0.048538625 
0.99858624 0.005859241 0.05283101 
0.9982448 0.01928846 0.05599391 
0.99785465 0.031829204 0.057210848 
0.9974636 0.043129083 0.05662442 
0.9971451 0.053042945 0.05374098 
0.9969447 0.061331343 0.048369486 
0.99689174 0.06740347 0.040787052 
0.9969411 0.07172918 0.031037612 
0.997038 0.074297786 0.019876342 
0.9970642 0.07623128 0.0072075953 
0.9969747 0.07750769 -0.0058282516 
0.996702 0.07887384 -0.019081313 
0.9962797 0.079940625 -0.03219132 
0.995699 0.08066991 -0.045563787 
0.995001 0.08069297 -0.058835305 
0.99414414 0.080734596 -0.07183003 
0.993241 0.080770805 -0.083356865 
0.9922493 0.0819531 -0.09340834 
0.99128246 0.0843233 -0.10123633 
0.99033356 0.08842721 -0.10686531 
0.9894844 0.093803495 -0.11009821 
0.98871964 0.10040069 -0.11114509 
0.9879659 0.10821056 -0.11051662 
0.98723245 0.117004596 -0.10808393 
0.9862557 0.12782188 -0.10469631 
0.985005 0.14019084 -0.10055696 
0.9832458 0.1544341 -0.096839726 
0.9811902 0.16906647 -0.09317958 
0.9787855 0.18406616 -0.08999175 
0.9761886 0.1988569 -0.086671114 
0.97330797 0.21374004 -0.083588175 
0.9702794 0.22810923 -0.08077244 
0.9673727 0.24083345 -0.07867333 
0.9649815 0.2504603 -0.07797743 
0.96345854 0.25598127 -0.07887611 
0.96211183 0.260085 -0.081833355 
0.96258074 0.25712126 -0.08559853 
0.9622421 0.2569006 -0.089956425 
0 0 0 
0 0 0 
0 0 0 
0 0 0 
0 0 0 
0 0 0 
0 0 0 
0 0 0 
0 0 0 
0 0 0 
0 0 0 
0.9847752 -0.17329034 -0.013726935 
0.9846372 -0.17435788 -0.009434555 
0.98522836 -0.17113288 -0.0062290905 
0.985856 -0.1675467 -0.003997152 
0.98697966 -0.16083896 -0.0014048585 
0.9884305 -0.15166621 0.0016139059 
0.99022084 -0.13939098 0.0057359836 
0.9921517 -0.12459109 0.010595593 
0.9940192 -0.108034745 0.015951188 
0.99563533 -0.09086626 0.021297205 
0.9969715 -0.07325525 0.026107829 
0.9979619 -0.055869702 0.030833317 
0.99863285 -0.038579788 0.035271708 
0.99894774 -0.022195745 0.040135615 
0.9989712 -0.006657616 0.044857454 
0.99875987 0.007139659 0.049272157 
0.9984536 0.020214265 0.051787086 
0.99809086 0.032126203 0.05275122 
0.99773246 0.043045945 0.05174087 
0.9974329 0.052323986 0.048887275 
0.9972537 0.059703384 0.043824326 
0.99719274 0.06538125 0.036496434 
0.99722886 0.069071315 0.027638327 
0.9972542 0.07206295 0.017062312 
0.997226 0.074230306 0.00550522 
0.99706435 0.076265 -0.006813052 
0.9967797 0.0779205 -0.018938106 
0.99634665 0.07950801 -0.03117474 
0.99579716 0.08063096 -0.043437805 
0.99509037 0.081586234 -0.056026407 
0.9943027 0.082122296 -0.06795731 
0.9934225 0.08293676 -0.07895073 
0.9925587 0.08393705 -0.088214196 
0.9916287 0.08642018 -0.09593765 
0.9907483 0.09013215 -0.10145966 
0.9899048 0.0953708 -0.10484694 
0.9890692 0.10198255 -0.1064977 
0.98829263 0.109453574 -0.106290475 
0.9874744 0.11804951 -0.10468443 
0.98666215 0.12738998 -0.101338804 
0.98552436 0.13846013 -0.09782944 
0.9841297 0.15033767 -0.09427242 
0.982381 0.16313225 -0.091188945 
0.9804366 0.17611843 -0.08790032 
0.97821534 0.18952131 -0.08471408 
0.9758442 0.20278203 -0.081287704 
0.9733012 0.2157879 -0.07823358 
0.9708211 0.22738633 -0.07617078 
0.9686045 0.23685676 -0.07552704 
0.9667967 0.24373539 -0.076793455 
0.9653058 0.24879299 -0.07929003 
0.9643305 0.2513834 -0.08290521 
0.9632216 0.25460318 -0.08591518 
0.9633235 0.2538242 -0.087069795 
0 0 0 
0 0 0 
0 0 0 
0 0 0 
0 0 0 
0 0 0 
0 0 0 
0 0 0 
0 0 0 
0.9874809 -0.1555495 -0.026192406 
0.9866092 -0.16195148 -0.01933659 
0.9870028 -0.1601342 -0.013512207 
0.9878121 -0.15536676 -0.00940805 
0.98871464 -0.14969158 -0.005991546 
0.9898407 -0.1421419 -0.0033287606 
0.99116284 -0.13265069 -6.1988154e-05 
0.9926536 -0.12093886 0.0035488796 
0.9941997 -0.10723386 0.008246612 
0.9956214 -0.092509925 0.013418963 
0.99684906 -0.07714294 0.018468348 
0.9978203 -0.061751448 0.023268823 
0.9985422 -0.046383124 0.0276056 
0.99898636 -0.031750336 0.03190933 
0.999201 -0.017300224 0.036031034 
0.9991638 -0.0038673691 0.040703904 
0.9989617 0.009060991 0.044647213 
0.9986635 0.020949626 0.04724781 
0.9983398 0.03240909 0.047618072 
0.9980024 0.042698372 0.046564117 
0.9977244 0.05144538 0.043582797 
0.99754167 0.05847199 0.038622595 
0.9974846 0.0633381 0.031823333 
0.997481 0.06694476 0.023456743 
0.99747425 0.069624774 0.014053523 
0.99737346 0.072357886 0.0032433358 
0.99717706 0.074676454 -0.007842945 
0.9968538 0.07692164 -0.019122338 
0.9964435 0.07871761 -0.030065125 
0.9958877 0.08053195 -0.041501492 
0.9952305 0.081963636 -0.052899305 
0.99445546 0.08333402 -0.064138904 
0.99369407 0.084212504 -0.074030474 
0.99287665 0.08557612 -0.082901806 
0.9920459 0.08772708 -0.09027134 
0.99117154 0.09157567 -0.095880546 
0.9903151 0.09672447 -0.09960194 
0.98948276 0.103089646 -0.10147216 
0.9886362 0.110383086 -0.10205032 
0.987913 0.11797546 -0.10054702 
0.9871271 0.12651984 -0.09784039 
0.9862628 0.1354933 -0.094484225 
0.98511136 0.14542094 -0.09169778 
0.9838356 0.15554714 -0.08872807 
0.9822985 0.16652669 -0.08578275 
0.98061174 0.17772993 -0.082539335 
0.97873175 0.18919384 -0.0793087 
0.9767468 0.20036525 -0.0762851 
0.9746906 0.21089031 -0.074185245 
0.97274095 0.21983749 -0.073800825 
0.9710238 0.2270608 -0.07453937 
0.96947426 0.2328903 -0.076693684 
0.9682073 0.23738721 -0.078879505 
0.9670089 0.24151933 -0.08100868 
0.9665874 0.24298462 -0.08165273 
0.96819174 0.23676734 -0.08090816 
0 0 0 
0 0 0 
0 0 0 
0 0 0 
0 0 0 
0 0 0 
0 0 0 
0.9911286 -0.12631615 -0.041331794 
0.98987335 -0.13815448 -0.03262141 
0.98974967 -0.14066869 -0.024655823 
0.9902303 -0.1382298 -0.018345637 
0.9909376 -0.13369028 -0.013025767 
0.9917813 -0.12760764 -0.009283565 
0.992722 -0.12029072 -0.0057642995 
0.9937902 -0.111234695 -0.0028404735 
0.99495065 -0.10036167 0.000848391 
0.9960855 -0.0882439 0.00517556 
0.99710846 -0.07531998 0.010086834 
0.9979463 -0.062298685 0.014899927 
0.9986091 -0.04905026 0.019340957 
0.9990611 -0.03628482 0.023671493 
0.99934155 -0.023729885 0.027449025 
0.99943835 -0.011755955 0.0313817 
0.9993742 0.00029115888 0.03537232 
0.9991576 0.011643937 0.039350763 
0.9988809 0.022768486 0.04145449 
0.998569 0.03320861 0.041918643 
0.99825525 0.04297052 0.04049656 
0.99797297 0.051403973 0.03751813 
0.99779123 0.057852928 0.03264727 
0.9976969 0.06256235 0.026211588 
0.99767196 0.06556677 0.0187535 
0.9976125 0.06831959 0.010088565 
0.99749136 0.07078578 0.00061391405 
0.99724865 0.07350992 -0.009568793 
0.9969388 0.07577171 -0.019281829 
0.9965268 0.07799117 -0.02918557 
0.9960362 0.07991087 -0.039066475 
0.9954053 0.081910826 -0.04958891 
0.99474674 0.08327199 -0.059538867 
0.99404305 0.08455874 -0.06876286 
0.99335015 0.08571872 -0.076863155 
0.9925548 0.0881392 -0.084063 
0.99171484 0.09183457 -0.08982337 
0.9908526 0.0970854 -0.09373201 
0.9899953 0.103270814 -0.09614839 
0.98922825 0.10982365 -0.09677956 
0.9885093 0.116818056 -0.09593167 
0.9879024 0.123855576 -0.093320474 
0.98716444 0.13144138 -0.09071796 
0.98638046 0.13887136 -0.08813854 
0.98543143 0.14691162 -0.08568466 
0.9843943 0.15531172 -0.08274148 
0.98315424 0.16441816 -0.079839975 
0.98182154 0.17358498 -0.0767773 
0.98033124 0.18300423 -0.07389201 
0.9787515 0.19200349 -0.07197424 
0.9771612 0.2001963 -0.07125568 
0.97567266 0.20706238 -0.07202871 
0.9743922 0.21267055 -0.073014714 
0.97321403 0.21745987 -0.07460339 
0.9723395 0.22106354 -0.075412355 
0.971892 0.22285275 -0.075913005 
0.97258514 0.2200562 -0.07518883 
0.97524154 0.20859732 -0.07342444 
0 0 0 
0 0 0 
0 0 0 
0 0 0 
0 0 0 
0.994366 -0.09008393 -0.05586833 
0.99327284 -0.10583229 -0.046995282 
0.9929382 -0.112463534 -0.03775774 
0.99308044 -0.113595136 -0.029791852 
0.993457 -0.11188816 -0.022897158 
0.99401444 -0.10782355 -0.017588757 
0.9946329 -0.10266073 -0.012892218 
0.9953351 -0.09600953 -0.0094981715 
0.99610066 -0.08800901 -0.0061672446 
0.9969052 -0.07856014 -0.0028848096 
0.9976776 -0.06810115 0.0013229647 
0.9983343 -0.057403903 0.0057921265 
0.9988719 -0.04640465 0.01007681 
0.99926233 -0.035667744 0.014237352 
0.999528 -0.024854708 0.018061368 
0.99965537 -0.014721864 0.021739336 
0.9996734 -0.0044068415 0.025171887 
0.99956053 0.0057060677 0.029089663 
0.9993449 0.016045911 0.032439835 
0.9990619 0.026038064 0.03460502 
0.99876064 0.035666704 0.034714557 
0.9984405 0.04466528 0.033492092 
0.99816144 0.052464057 0.030354796 
0.99794394 0.058686938 0.02576591 
0.99782115 0.062908456 0.019886812 
0.9977313 0.06604273 0.013065768 
0.99765193 0.06826594 0.0055287075 
0.997503 0.0705585 -0.0030530326 
0.9972865 0.07269957 -0.011593692 
0.9969823 0.07500862 -0.02000035 
0.99664354 0.07698196 -0.027847433 
0.9962078 0.07900952 -0.036437858 
0.9957175 0.0805617 -0.045347866 
0.9951473 0.08195213 -0.054459065 
0.99457943 0.08299084 -0.06264507 
0.9939344 0.08460734 -0.070258304 
0.9932268 0.08689455 -0.07713562 
0.9924225 0.09074357 -0.082843885 
0.9915874 0.09572489 -0.08712761 
0.9908046 0.10148955 -0.08947733 
0.9900719 0.10748592 -0.090578906 
0.9894751 0.11350735 -0.08975145 
0.98892975 0.11959202 -0.08783912 
0.98844826 0.12523836 -0.08535449 
0.98788023 0.13097836 -0.08329152 
0.9873171 0.1365677 -0.080958016 
0.98660195 0.14299802 -0.07853881 
0.98582643 0.14960824 -0.07591813 
0.9849032 0.15680574 -0.07333182 
0.9839047 0.16408077 -0.07077406 
0.98277277 0.171531 -0.06881102 
0.98158395 0.17841718 -0.06826704 
0.98048365 0.18433627 -0.0683526 
0.979472 0.189336 -0.06918567 
0.978691 0.19318868 -0.06958522 
0.9780379 0.19622624 -0.07026499 
0.97784543 0.19718906 -0.07024883 
0.97816813 0.1956834 -0.06996548 
0.9795196 0.1891854 -0.06892354 
0.98234993 0.17429596 -0.06789493 
0 0 0 
0 0 0 
0 0 0 
0.99629515 -0.052446816 -0.06815712 
0.9956951 -0.070482604 -0.060195908 
0.9955054 -0.07978166 -0.05102802 
0.9956055 -0.08361759 -0.042162254 
0.9958338 -0.08456798 -0.034108497 
0.99616647 -0.082990386 -0.027659593 
0.9965467 -0.080116324 -0.021820677 
0.9969914 -0.07556319 -0.017278412 
0.9974497 -0.070119016 -0.013322776 
0.99793375 -0.06341204 -0.01035478 
0.9984293 -0.055585206 -0.007026108 
0.9988811 -0.047163885 -0.0034712907 
0.999268 -0.038256176 0.00035498472 
0.99955463 -0.029572142 0.004016523 
0.9997592 -0.020646917 0.0074431845 
0.99986535 -0.012255998 0.010913496 
0.9998933 -0.0037672427 0.01411992 
0.99983525 0.004365217 0.017620297 
0.99969244 0.013043949 0.021096334 
0.99946266 0.021957716 0.02433617 
0.9991803 0.031074649 0.025944147 
0.9988641 0.039741587 0.026289172 
0.9985462 0.04775389 0.025004102 
0.9982389 0.05493992 0.022380264 
0.99800223 0.06049761 0.018213913 
0.9978163 0.06474532 0.013064695 
0.9976886 0.06758074 0.007089077 
0.9975697 0.06967618 0.0003541586 
0.99744797 0.07107715 -0.0067584016 
0.997256 0.07267095 -0.014127355 
0.99702895 0.074262954 -0.02045506 
0.9967373 0.07613762 -0.026793445 
0.9964358 0.07749163 -0.033328157 
0.99605834 0.07858896 -0.041128926 
0.99565643 0.07925331 -0.048858974 
0.9951698 0.080376215 -0.05636362 
0.99462426 0.08195224 -0.06329643 
0.99398255 0.08456488 -0.06962362 
0.99327815 0.08806798 -0.07511819 
0.9925438 0.09277629 -0.07905271 
0.9918485 0.097855054 -0.081614874 
0.9912363 0.10312469 -0.0825588 
0.99069065 0.10840834 -0.08233951 
0.9903095 0.113122106 -0.080563694 
0.9899818 0.11732992 -0.07854809 
0.9897209 0.120853044 -0.07646616 
0.989377 0.124747925 -0.07463942 
0.9890219 0.12870748 -0.07259569 
0.98852706 0.13348474 -0.0706836 
0.98799294 0.13840874 -0.068650916 
0.9873324 0.14399818 -0.066627674 
0.9866054 0.14953949 -0.06517547 
0.98582137 0.15494424 -0.06440908 
0.9850497 0.15968034 -0.06464691 
0.98441136 0.163552 -0.064692006 
0.9838356 0.16684173 -0.06504923 
0.9835149 0.16871947 -0.0650556 
0.9833374 0.16960017 -0.06544692 
0.9835695 0.16833471 -0.065226816 
0.9841987 0.1646816 -0.065061525 
0.98558813 0.15615201 -0.06505807 
0.98806095 0.13944861 -0.06549572 
0 0 0 
0 0 0 
0.9966962 -0.043195747 -0.06878146 
0.99688536 -0.048769962 -0.061976675 
0.99715567 -0.05280163 -0.053782 
0.9974617 -0.05493852 -0.045300383 
0.9977625 -0.054998785 -0.03801627 
0.99803734 -0.054120783 -0.03150344 
0.998333 -0.051472284 -0.026115308 
0.9986211 -0.04804594 -0.021156373 
0.998899 -0.04349963 -0.017572071 
0.9991584 -0.038361184 -0.014524036 
0.99940675 -0.03230029 -0.01195262 
0.9996348 -0.025429387 -0.009151152 
0.99981016 -0.018459206 -0.006244732 
0.99993163 -0.011191867 -0.0033993647 
0.9999891 -0.0046405946 -0.00052587077 
0.9999951 0.002222525 0.00223113 
0.99994963 0.008577926 0.0052213557 
0.9998478 0.015301169 0.008381469 
0.99968576 0.022121206 0.011796793 
0.9994569 0.029649638 0.0143885305 
0.9991688 0.037561517 0.01584075 
0.99885696 0.045052335 0.015974285 
0.99852675 0.052062254 0.015293683 
0.99822176 0.058135673 0.013180142 
0.9979488 0.063222796 0.010060053 
0.9977393 0.06695307 0.005794532 
0.99756515 0.069737665 0.00073972414 
0.99744797 0.071240164 -0.0047311266 
0.9973417 0.07208692 -0.010632158 
0.9972292 0.072627224 -0.016096946 
0.9970421 0.073879965 -0.021184914 
0.99684536 0.07517194 -0.02546822 
0.996616 0.07621054 -0.030798167 
0.9964043 0.07632977 -0.03677311 
0.99611914 0.0765594 -0.043421697 
0.9957663 0.07724979 -0.049820732 
0.9953035 0.078970626 -0.055988543 
0.9947858 0.081303 -0.061572276 
0.9942169 0.08461568 -0.066127725 
0.9936357 0.08848697 -0.06970028 
0.9930931 0.09281578 -0.071774185 
0.9925932 0.09708976 -0.07302302 
0.99217707 0.10127968 -0.07298722 
0.9919085 0.10465348 -0.07186971 
0.99179626 0.10699333 -0.06994716 
0.99168855 0.10906576 -0.068253085 
0.9916047 0.11077788 -0.06669774 
0.9914248 0.11315877 -0.065360375 
0.9912416 0.1155401 -0.06395783 
0.99090534 0.11908034 -0.06266225 
0.990524 0.122819535 -0.061461654 
0.99005383 0.12694193 -0.060656764 
0.9895711 0.13070965 -0.060532514 
0.98913133 0.13399345 -0.060539912 
0.9886969 0.13705464 -0.060782384 
0.9883995 0.13929082 -0.060534764 
0.9881349 0.14102036 -0.060850374 
0.98807967 0.14129294 -0.061114445 
0.9880819 0.14102465 -0.061694946 
0.988319 0.13917783 -0.06208912 
0.98866975 0.13605233 -0.0634194 
0.9891023 0.13198438 -0.0652436 
0 0 0 
0.9972301 0.0005759313 -0.07437612 
0.997425 -0.017779276 -0.06947864 
0.9977545 -0.022972032 -0.06291517 
0.99814975 -0.025416633 -0.05523781 
0.99850994 -0.026160609 -0.0478911 
0.9988173 -0.026339475 -0.040869378 
0.9990659 -0.025153447 -0.035137404 
0.9992816 -0.023401087 -0.029811839 
0.99946666 -0.020466918 -0.025448292 
0.99961126 -0.017335571 -0.02183661 
0.99971896 -0.013601852 -0.019417688 
0.999806 -0.009179254 -0.017429534 
0.9998686 -0.0040960647 -0.015692452 
0.99990344 0.0017683433 -0.0137841245 
0.9999064 0.007025886 -0.011741784 
0.9998752 0.012481141 -0.009691177 
0.99982214 0.01731762 -0.0074768416 
0.99972886 0.022732913 -0.005048777 
0.9996111 0.027808221 -0.002114501 
0.9994489 0.03318827 0.0007307558 
0.99923706 0.03894702 0.0029037225 
0.9989727 0.04515632 0.0037949304 
0.99867433 0.051308975 0.004142414 
0.9983775 0.056811154 0.0038664246 
0.9980812 0.06185197 0.0028868457 
0.997826 0.065900564 0.00073518144 
0.9976049 0.06913452 -0.0021981746 
0.9974318 0.07137306 -0.005975002 
0.99731165 0.07258801 -0.010024439 
0.99725443 0.072718255 -0.013991825 
0.99717355 0.07291275 -0.018133728 
0.99707 0.07344476 -0.021381501 
0.99690825 0.07457667 -0.024745353 
0.99678993 0.0749094 -0.02825543 
0.99665874 0.07472528 -0.032978754 
0.9965169 0.07432178 -0.037820168 
0.99627054 0.07482395 -0.042969685 
0.99594074 0.07613144 -0.048022818 
0.99556494 0.07815576 -0.052364722 
0.995167 0.080644034 -0.05602922 
0.9947693 0.083701365 -0.05855089 
0.99440587 0.08669622 -0.060338456 
0.994067 0.089760795 -0.061431404 
0.9937975 0.09233175 -0.061978646 
0.99368703 0.093971685 -0.061281655 
0.9936847 0.094854645 -0.05994471 
0.9937336 0.09522777 -0.058526546 
0.9937214 0.0959449 -0.057553742 
0.99373674 0.09626388 -0.056751274 
0.9936489 0.097532876 -0.056118395 
0.99352634 0.09908283 -0.05557011 
0.9932685 0.10178255 -0.055300582 
0.99300563 0.10421724 -0.05548593 
0.9927449 0.106471814 -0.055868223 
0.9924985 0.108462185 -0.05641463 
0.9923018 0.11020972 -0.0564889 
0.9920863 0.11203483 -0.05668449 
0.9919705 0.11293619 -0.056921892 
0.99183923 0.11359272 -0.05789461 
0.9918264 0.1132709 -0.0587392 
0.99177915 0.11283126 -0.060360488 
0.99183655 0.111121625 -0.06254855 
0.99209833 0.106743254 -0.06593125 
0.9936446 0.088550694 -0.06949349 
0.99713355 0.015289836 -0.07410068 
0.9975651 0.008067739 -0.069274426 
0.99801135 0.004151216 -0.06289871 
0.9984007 0.0027490277 -0.05646799 
0.99875903 0.002010765 -0.049762297 
0.99902993 0.0023608166 -0.043974098 
0.9992483 0.00294192 -0.038655583 
0.9993979 0.004539775 -0.034400236 
0.9995174 0.0062017753 -0.030438887 
0.99958426 0.008404941 -0.027583374 
0.9996197 0.010619118 -0.025451241 
0.99961805 0.013446348 -0.024142949 
0.9995866 0.017191295 -0.023049908 
0.99953645 0.021090526 -0.021958785 
0.99945956 0.025507243 -0.020740626 
0.9993897 0.029063217 -0.019382423 
0.9992853 0.033312075 -0.017868675 
0.9991801 0.03720445 -0.015966754 
0.9990471 0.04143176 -0.013727656 
0.9989086 0.04527841 -0.01147423 
0.99873394 0.049308725 -0.009957619 
0.9985127 0.05373765 -0.009212043 
0.99828213 0.05792603 -0.008793714 
0.9980413 0.06199226 -0.008409229 
0.9978178 0.06545953 -0.008643118 
0.99760973 0.06845292 -0.00943546 
0.99743325 0.07073847 -0.011091107 
0.9972892 0.072399706 -0.013138284 
0.997207 0.07310373 -0.015303735 
0.9971622 0.07319261 -0.017616948 
0.9971379 0.07298912 -0.019713487 
0.9970559 0.07345138 -0.022009987 
0.99698436 0.073876984 -0.023757288 
0.99690014 0.07414394 -0.02632297 
0.99686605 0.07358971 -0.029029254 
0.9967948 0.07319061 -0.03229973 
0.99667495 0.07324246 -0.03570119 
0.9964847 0.07405847 -0.03916043 
0.996266 0.07525866 -0.04231071 
0.99604267 0.07684459 -0.044653237 
0.99583185 0.07846228 -0.046505276 
0.9956426 0.080129035 -0.047699284 
0.99549514 0.081308834 -0.048767187 
0.9953907 0.08216248 -0.049464084 
0.9953972 0.082109086 -0.049423072 
0.9954876 0.08144605 -0.04869353 
0.9955651 0.080919705 -0.047982074 
0.99565554 0.080059454 -0.04754701 
0.9956864 0.079751365 -0.047416437 
0.9957368 0.07910428 -0.047443748 
0.9956683 0.079817094 -0.04768691 
0.99558187 0.08058507 -0.04819598 
0.99544865 0.08175604 -0.04897083 
0.99533606 0.08250822 -0.04998666 
0.99524915 0.08308296 -0.050758075 
0.9951336 0.08399658 -0.05151384 
0.9950555 0.08462036 -0.052001134 
0.994923 0.08542243 -0.053209055 
0.9948434 0.0855252 -0.054515723 
0.994707 0.085785225 -0.05655998 
0.99460775 0.085384406 -0.058864594 
0.9944409 0.084768064 -0.062464003 
0.99441355 0.08198337 -0.06648587 
0.9946131 0.07601851 -0.07047017 
0.99667984 0.03563564 -0.073207945 
0.99710906 0.033069782 -0.068410724 
0.99752504 0.0314115 -0.06290676 
0.9979051 0.030425094 -0.05709403 
0.9981831 0.03030023 -0.052081916 
0.99842924 0.030181196 -0.0472035 
0.9985815 0.030829363 -0.043410163 
0.9987102 0.031358324 -0.039933108 
0.9987781 0.032463815 -0.03726169 
0.998832 0.0333626 -0.03495334 
0.99884087 0.03464913 -0.03341194 
0.99882317 0.036263146 -0.032207087 
0.9987804 0.038147353 -0.03134444 
0.99869806 0.04085142 -0.03055178 
0.9986261 0.04314132 -0.029744316 
0.9985136 0.046211872 -0.028898394 
0.99842054 0.048739724 -0.027945373 
0.9982874 0.051990516 -0.0268217 
0.99817157 0.05480302 -0.02549904 
0.9980442 0.057632204 -0.024217008 
0.9979126 0.06026505 -0.02320897 
0.99777293 0.06278783 -0.022515872 
0.9976271 0.06528812 -0.021856295 
0.9975058 0.06732978 -0.021188045 
0.99738926 0.06922058 -0.020573722 
0.9972915 0.0706631 -0.020409966 
0.9972098 0.07182745 -0.020335408 
0.9971442 0.07265689 -0.020602684 
0.9971011 0.0731538 -0.020924387 
0.99709255 0.07318961 -0.021206047 
0.9970669 0.0733309 -0.021916948 
0.99705756 0.07333042 -0.022338888 
0.9970137 0.07363689 -0.023269849 
0.99701124 0.0734487 -0.023956144 
0.996993 0.07325369 -0.025279459 
0.9969913 0.07282618 -0.026547467 
0.99695575 0.07270109 -0.02817444 
0.9969022 0.07273092 -0.029936943 
0.99684626 0.072877824 -0.03140583 
0.9967928 0.07298464 -0.032825228 
0.99675035 0.073089994 -0.033862207 
0.99674046 0.07277717 -0.03481593 
0.9967448 0.072307795 -0.035658002 
0.9967905 0.07129383 -0.036412597 
0.99687403 0.06986983 -0.036883615 
0.9969815 0.06818692 -0.03712829 
0.9971065 0.06621532 -0.03733842 
0.99719524 0.06467459 -0.037668813 
0.9973108 0.0626163 -0.038083527 
0.99736243 0.061465293 -0.038603265 
0.99742395 0.06004499 -0.039244495 
0.99741757 0.059632756 -0.040027957 
0.99741685 0.05897978 -0.041000232 
0.9973956 0.058573008 -0.042087477 
0.99735546 0.058279216 -0.043424774 