# OOMMF OVF 2.0
# Segment count: 1
# Begin: Segment
# Begin: Header
# Title: m
# meshtype: rectangular
# meshunit: m
# xmin: 0
# ymin: 0
# zmin: 0
# xmax: 1.6e-07
# ymax: 8e-08
# zmax: 5e-09
# valuedim: 3
# valuelabels: m_x m_y m_z
# valueunits: 1 1 1
# Desc: Total simulation time:  7.001405450227106e-10  s
# xbase: 1.25e-09
# ybase: 1.25e-09
# zbase: 2.5e-09
# xnodes: 64
# ynodes: 32
# znodes: 1
# xstepsize: 2.5e-09
# ystepsize: 2.5e-09
# zstepsize: 5e-09
# End: Header
# Begin: Data Text
0 0 0 
0 0 0 
0 0 0 
0 0 0 
0 0 0 
0 0 0 
0 0 0 
0 0 0 
0 0 0 
0 0 0 
0 0 0 
0 0 0 
0 0 0 
0 0 0 
0 0 0 
0 0 0 
0 0 0 
0 0 0 
0 0 0 
0 0 0 
0 0 0 
0 0 0 
0 0 0 
0 0 0 
-0.91487396 -0.3984302 0.065261476 
-0.8970225 -0.43989286 0.04295465 
-0.8716528 -0.4896662 0.021179235 
-0.8461232 -0.5328921 0.010073832 
-0.825427 -0.564346 0.013565763 
-0.81196445 -0.5828631 0.031375065 
-0.8059038 -0.588938 0.060589463 
-0.8060644 -0.58383304 0.09694964 
-0.8109012 -0.5691011 0.13624644 
-0.81893903 -0.5464724 0.17523399 
-0.82879806 -0.5177468 0.21220778 
-0.83889365 -0.48514813 0.24675691 
-0.8474002 -0.45163518 0.2791749 
-0.8525323 -0.4212396 0.3094284 
-0.8531786 -0.39872614 0.33630913 
-0.8497657 -0.38868383 0.35612237 
0 0 0 
0 0 0 
0 0 0 
0 0 0 
0 0 0 
0 0 0 
0 0 0 
0 0 0 
0 0 0 
0 0 0 
0 0 0 
0 0 0 
0 0 0 
0 0 0 
0 0 0 
0 0 0 
0 0 0 
0 0 0 
0 0 0 
0 0 0 
0 0 0 
0 0 0 
0 0 0 
0 0 0 
0 0 0 
0 0 0 
0 0 0 
0 0 0 
0 0 0 
0 0 0 
0 0 0 
0 0 0 
0 0 0 
0 0 0 
0 0 0 
0 0 0 
0 0 0 
0 0 0 
0 0 0 
0 0 0 
0 0 0 
0 0 0 
-0.9534461 0.21774137 0.20863703 
-0.9608839 0.16974828 0.21883228 
-0.9708071 0.095851414 0.21987759 
-0.9790919 0.0029888356 0.20339705 
-0.98018175 -0.104017496 0.16859502 
-0.9676897 -0.22136384 0.12072662 
-0.9336918 -0.3513947 0.068857916 
-0.8989037 -0.4371801 0.02907876 
-0.86448795 -0.5026537 6.8181645e-05 
-0.8335188 -0.55229324 -0.014786835 
-0.8095705 -0.58685744 -0.013927443 
-0.7946119 -0.6071155 0.0016622922 
-0.7885576 -0.61428976 0.028724188 
-0.79006064 -0.60976785 0.06314657 
-0.7972342 -0.59519804 0.10078274 
-0.8083229 -0.5721759 0.1386685 
-0.8215569 -0.54255784 0.17514403 
-0.8351071 -0.5084407 0.2099626 
-0.8469082 -0.47281015 0.24330454 
-0.8551347 -0.43937856 0.27512005 
-0.8589208 -0.4121269 0.30398428 
-0.8597792 -0.3924678 0.32672435 
-0.86401963 -0.37205657 0.33918157 
-0.8615246 -0.35911188 0.3589069 
-0.85546815 -0.35608503 0.37600243 
-0.8496784 -0.35857302 0.38661614 
-0.84641606 -0.36219275 0.3903799 
-0.8454268 -0.36482087 0.39007604 
0 0 0 
0 0 0 
0 0 0 
0 0 0 
0 0 0 
0 0 0 
0 0 0 
0 0 0 
0 0 0 
0 0 0 
0 0 0 
0 0 0 
0 0 0 
0 0 0 
0 0 0 
0 0 0 
0 0 0 
0 0 0 
0 0 0 
0 0 0 
0 0 0 
0 0 0 
0 0 0 
0 0 0 
0 0 0 
0 0 0 
0 0 0 
0 0 0 
0 0 0 
0 0 0 
0 0 0 
0 0 0 
0 0 0 
-0.94933355 0.31356144 -0.021094704 
-0.9551963 0.2956009 0.014835665 
-0.9601121 0.27012217 0.072242536 
-0.9623329 0.22870071 0.14700858 
-0.9689038 0.16851954 0.18118106 
-0.97759825 0.089411944 0.1905443 
-0.98417044 -0.0067862724 0.17709476 
-0.98281676 -0.1165636 0.14312346 
-0.96753347 -0.2344681 0.094359115 
-0.9350752 -0.35214487 0.040352527 
-0.89379835 -0.4484062 -0.0075055333 
-0.8510396 -0.52332175 -0.04319911 
-0.8128584 -0.57901996 -0.06322416 
-0.78382814 -0.61741394 -0.06643352 
-0.76618975 -0.6402971 -0.054525282 
-0.7599594 -0.6492459 -0.030683072 
-0.76344466 -0.64587265 0.0008573404 
-0.77442956 -0.6316122 0.036401894 
-0.79047054 -0.6081307 0.07303133 
-0.8093485 -0.57703304 0.109488666 
-0.8286562 -0.540535 0.14543352 
-0.8460504 -0.501348 0.18124278 
-0.85941553 -0.46311373 0.21663493 
-0.8677414 -0.42927587 0.2504939 
-0.8716879 -0.40176648 0.2806136 
-0.873117 -0.3796991 0.30577004 
-0.8705309 -0.3659861 0.32898337 
-0.86579096 -0.3608035 0.34673738 
-0.86235726 -0.3600705 0.35593435 
-0.8638863 -0.3578658 0.3544468 
-0.8750718 -0.34625354 0.3381686 
-0.90599394 -0.30634525 0.29210898 
-0.9287802 -0.26580593 0.25829193 
-0.9424002 -0.2373769 0.23565672 
0 0 0 
0 0 0 
0 0 0 
0 0 0 
0 0 0 
0 0 0 
0 0 0 
0 0 0 
0 0 0 
0 0 0 
0 0 0 
0 0 0 
0 0 0 
0 0 0 
0 0 0 
0 0 0 
0 0 0 
0 0 0 
0 0 0 
0 0 0 
0 0 0 
0 0 0 
0 0 0 
0 0 0 
0 0 0 
0 0 0 
0 0 0 
-0.9327986 0.33110347 -0.14232825 
-0.938712 0.32050675 -0.12686738 
-0.94367486 0.31589496 -0.09842893 
-0.9488196 0.31140548 -0.052611716 
-0.9563629 0.29204372 -0.008979746 
-0.9640356 0.26236534 0.042425383 
-0.9711953 0.21813802 0.09589417 
-0.97919947 0.15523176 0.13065845 
-0.9870099 0.07385915 0.14267544 
-0.9910856 -0.024208654 0.13100867 
-0.98607385 -0.13500525 0.09711842 
-0.9665375 -0.25219414 0.04694083 
-0.93052876 -0.36607367 -0.01031506 
-0.8831134 -0.46482003 -0.06366499 
-0.83243537 -0.5440115 -0.10537092 
-0.786502 -0.60359126 -0.13073726 
-0.75133914 -0.6451248 -0.1389373 
-0.730158 -0.67052853 -0.13138081 
-0.72318023 -0.6815863 -0.11158211 
-0.7287675 -0.6796878 -0.08320107 
-0.74403244 -0.6662723 -0.049970705 
-0.7660673 -0.64260364 -0.01418962 
-0.7917804 -0.61038184 0.022757014 
-0.8183456 -0.57148945 0.060912695 
-0.8428161 -0.5287704 0.100314304 
-0.8627865 -0.48555788 0.14083043 
-0.87671524 -0.44566113 0.18098779 
-0.8845789 -0.4119184 0.2187317 
-0.88739836 -0.38607925 0.25192645 
-0.8862878 -0.3692684 0.2795262 
-0.8836237 -0.3603038 0.29898226 
-0.8827414 -0.3547383 0.3081046 
-0.8870935 -0.3462654 0.30523023 
-0.8996073 -0.3276119 0.28875124 
-0.9209496 -0.29254568 0.25742754 
-0.9426538 -0.24911061 0.22214371 
-0.9630999 -0.20012087 0.17997298 
-0.9858445 -0.12509786 0.11162979 
-0.9959528 -0.06432679 0.062771566 
-0.9990466 -0.028253557 0.033282466 
0 0 0 
0 0 0 
0 0 0 
0 0 0 
0 0 0 
0 0 0 
0 0 0 
0 0 0 
0 0 0 
0 0 0 
0 0 0 
0 0 0 
0 0 0 
0 0 0 
0 0 0 
0 0 0 
0 0 0 
0 0 0 
0 0 0 
0 0 0 
0 0 0 
0 0 0 
-0.8996543 0.4132506 -0.14087638 
-0.9135152 0.3815452 -0.14111477 
-0.9258817 0.35147914 -0.13858396 
-0.9350256 0.33080763 -0.12764646 
-0.94228 0.3172412 -0.10708177 
-0.9496753 0.303737 -0.076554544 
-0.9588376 0.28108925 -0.040239498 
-0.9688808 0.24752435 0.0013513906 
-0.97889405 0.1998313 0.042823613 
-0.98812544 0.13546902 0.07250095 
-0.9950565 0.05381189 0.083468184 
-0.9964947 -0.043254673 0.07160558 
-0.98765254 -0.15210567 0.037502337 
-0.9638484 -0.26607203 -0.014208269 
-0.9234384 -0.37650257 -0.07421303 
-0.8704105 -0.4742392 -0.13222276 
-0.8127638 -0.5543581 -0.17917073 
-0.75952035 -0.61558187 -0.21020909 
-0.7181073 -0.65902984 -0.22361058 
-0.69269437 -0.6864971 -0.22112522 
-0.6843241 -0.6996226 -0.20549673 
-0.69119316 -0.69975084 -0.18055703 
-0.71033466 -0.6878662 -0.14921395 
-0.7379373 -0.66517645 -0.11396947 
-0.770521 -0.63290757 -0.07566785 
-0.80443376 -0.5930263 -0.03473196 
-0.8364576 -0.5479562 0.009092753 
-0.8635748 -0.5012073 0.055043913 
-0.88388795 -0.45652714 0.10161237 
-0.89679855 -0.41766295 0.14597972 
-0.90323037 -0.38707647 0.18532892 
-0.90505946 -0.365752 0.21700913 
-0.90506464 -0.35189658 0.23880298 
-0.90641314 -0.34111312 0.24911274 
-0.91196483 -0.32730713 0.24736676 
-0.92344916 -0.3045005 0.23349759 
-0.9402232 -0.26920363 0.20859033 
-0.95867854 -0.2235117 0.17600541 
-0.9761309 -0.16946176 0.13583513 
-0.99050283 -0.10661224 0.08682192 
-0.99782664 -0.05017996 0.042708818 
-0.99996465 -0.0066375327 0.0051742564 
-0.99866444 0.038507566 -0.034445964 
-0.99599254 0.07065572 -0.05483252 
0 0 0 
0 0 0 
0 0 0 
0 0 0 
0 0 0 
0 0 0 
0 0 0 
0 0 0 
0 0 0 
0 0 0 
0 0 0 
0 0 0 
0 0 0 
0 0 0 
0 0 0 
0 0 0 
0 0 0 
0 0 0 
-0.7482999 0.6610772 -0.05499324 
-0.8063833 0.58601296 -0.07959231 
-0.866497 0.48632935 -0.11254736 
-0.8980841 0.42136443 -0.12608393 
-0.9171621 0.37658644 -0.13037014 
-0.9300812 0.34464517 -0.1271566 
-0.9400258 0.32047173 -0.116830856 
-0.9496858 0.29728526 -0.09858155 
-0.9603725 0.2688056 -0.07367746 
-0.97204703 0.23079842 -0.043091323 
-0.9834784 0.18061078 -0.012249045 
-0.9932074 0.115819775 0.011178924 
-0.9991594 0.036302514 0.019048138 
-0.99836063 -0.056852967 0.006631468 
-0.98673517 -0.15995856 -0.02769384 
-0.9602219 -0.26759785 -0.07978348 
-0.91731614 -0.37200588 -0.14192562 
-0.8611142 -0.46590778 -0.2035002 
-0.7990599 -0.5441428 -0.25575787 
-0.74050474 -0.6050887 -0.2924387 
-0.69371897 -0.6492181 -0.31188148 
-0.664155 -0.6781716 -0.31461322 
-0.6534101 -0.6934569 -0.3035999 
-0.66034317 -0.6961573 -0.28162393 
-0.68149996 -0.68710244 -0.2518891 
-0.7130238 -0.6669705 -0.2162119 
-0.7505846 -0.6368834 -0.17607468 
-0.7904258 -0.59824175 -0.13165872 
-0.8286974 -0.55342746 -0.08353883 
-0.8622515 -0.5054405 -0.032440785 
-0.8886212 -0.45823398 0.019336788 
-0.90694124 -0.41559651 0.068827994 
-0.9178686 -0.3806306 0.11241731 
-0.923448 -0.35436535 0.14720447 
-0.9264551 -0.33531752 0.1710063 
-0.929786 -0.31937644 0.18302074 
-0.9358269 -0.3010362 0.18331756 
-0.9457319 -0.27512768 0.17290488 
-0.95897156 -0.23863487 0.15305927 
-0.97327507 -0.19208404 0.12585495 
-0.9861541 -0.13773835 0.092348866 
-0.9953328 -0.0795272 0.054663785 
-0.9995192 -0.025116004 0.018180879 
-0.9996699 0.02146326 -0.01412222 
-0.9970808 0.06388667 -0.041813716 
-0.9930221 0.102358155 -0.058567192 
-0.9862242 0.15189308 -0.06550141 
-0.97937214 0.19114771 -0.065518536 
0 0 0 
0 0 0 
0 0 0 
0 0 0 
0 0 0 
0 0 0 
0 0 0 
0 0 0 
0 0 0 
0 0 0 
0 0 0 
0 0 0 
0 0 0 
0 0 0 
-0.33929294 0.9357322 0.09636243 
-0.4690476 0.8812173 0.058740318 
-0.64347667 0.76544195 -0.0060425256 
-0.75043327 0.6591307 -0.04895614 
-0.8258467 0.5578628 -0.08225866 
-0.8733028 0.4760368 -0.10359137 
-0.90299267 0.4136297 -0.11625293 
-0.922148 0.36679366 -0.12290469 
-0.93602294 0.32954565 -0.12353488 
-0.94783926 0.29611558 -0.11796829 
-0.9598035 0.26022452 -0.105168454 
-0.97210085 0.21797264 -0.08664833 
-0.9839602 0.16590507 -0.065557666 
-0.993508 0.102628306 -0.04908636 
-0.998656 0.027358463 -0.044021327 
-0.9966672 -0.058418892 -0.05693771 
-0.9842267 -0.15239686 -0.08984977 
-0.957958 -0.24979076 -0.14114201 
-0.9162412 -0.34502664 -0.20361371 
-0.8611917 -0.43169498 -0.2683064 
-0.7991099 -0.5054745 -0.32545212 
-0.7387982 -0.5640503 -0.36881506 
-0.6890628 -0.6077147 -0.3948105 
-0.65602475 -0.63761497 -0.40383014 
-0.64251083 -0.65522134 -0.39732212 
-0.6475882 -0.66143537 -0.3783291 
-0.66838926 -0.65675855 -0.34917626 
-0.7005152 -0.641597 -0.31246105 
-0.7398554 -0.61644053 -0.26947203 
-0.78213704 -0.5823967 -0.22153033 
-0.82375497 -0.5410908 -0.1692587 
-0.8611864 -0.4952647 -0.11432867 
-0.8919328 -0.4483069 -0.058964968 
-0.9146642 -0.40415874 -0.006708437 
-0.9298009 -0.36599237 0.038985986 
-0.9390877 -0.3353838 0.07504624 
-0.9450286 -0.31135628 0.09989173 
-0.95015603 -0.29052562 0.11313031 
-0.95640254 -0.2681458 0.11572474 
-0.9647564 -0.23953295 0.10894506 
-0.9748135 -0.20197617 0.09457491 
-0.98510796 -0.15521419 0.0739665 
-0.9936179 -0.101675175 0.04884355 
-0.9987568 -0.045227654 0.020961026 
-0.9999421 0.008812798 -0.0061819693 
-0.9978747 0.057763297 -0.030159915 
-0.9935707 0.10230752 -0.048481505 
-0.987715 0.14491881 -0.058461282 
-0.97980344 0.19101979 -0.059132837 
-0.9695245 0.2396773 -0.050766442 
-0.9516299 0.30572033 -0.030588776 
-0.9346047 0.35526675 -0.017308403 
0 0 0 
0 0 0 
0 0 0 
0 0 0 
0 0 0 
0 0 0 
0 0 0 
0 0 0 
0 0 0 
0 0 0 
0 0 0 
-0.033082623 0.98810464 0.15018259 
-0.20106117 0.97220016 0.12000527 
-0.36749896 0.92648524 0.081054084 
-0.53612983 0.8435161 0.032333758 
-0.6703688 0.74194914 -0.010828623 
-0.7694875 0.63695246 -0.04669814 
-0.837264 0.5417154 -0.07438797 
-0.88131344 0.46265936 -0.09608755 
-0.90989333 0.39916888 -0.11295276 
-0.9290655 0.34791565 -0.12566602 
-0.9437362 0.3030159 -0.13245165 
-0.956553 0.25962666 -0.13266654 
-0.9689749 0.2128949 -0.1255526 
-0.98041123 0.16034083 -0.114388116 
-0.9895822 0.09979824 -0.103766315 
-0.9943589 0.03138372 -0.10131895 
-0.9926079 -0.044603076 -0.11287258 
-0.9816928 -0.1258461 -0.14297612 
-0.95896506 -0.20973979 -0.19077574 
-0.922695 -0.29173738 -0.25203872 
-0.87387556 -0.3676433 -0.31808788 
-0.817071 -0.43332168 -0.38029906 
-0.7599033 -0.48700505 -0.43054968 
-0.71063906 -0.5282832 -0.46466026 
-0.6761588 -0.5583909 -0.48063385 
-0.65981823 -0.5784504 -0.47961977 
-0.66183835 -0.58936274 -0.4632728 
-0.6793773 -0.5912762 -0.434556 
-0.70867926 -0.584046 -0.3958082 
-0.74535716 -0.5675724 -0.34972027 
-0.78575516 -0.54205054 -0.2979429 
-0.82623625 -0.508479 -0.24245173 
-0.86379206 -0.46866423 -0.18497859 
-0.8957739 -0.42556643 -0.12838385 
-0.92076576 -0.3826819 -0.07579612 
-0.938697 -0.3433755 -0.030681984 
-0.9508362 -0.30966052 0.004575213 
-0.9591758 -0.2813433 0.028769307 
-0.9657284 -0.25606588 0.042413868 
-0.9721122 -0.22980525 0.046770696 
-0.97908145 -0.19868737 0.043849744 
-0.9865204 -0.1598305 0.035095714 
-0.99334896 -0.112988025 0.022173366 
-0.99819815 -0.0597056 0.005975196 
-0.9999257 -0.0036891543 -0.011625038 
-0.99825364 0.0515064 -0.028928775 
-0.9937132 0.103221245 -0.043353066 
-0.9869976 0.15169577 -0.053143308 
-0.9784995 0.19849566 -0.056020927 
-0.9677348 0.24665463 -0.051487528 
-0.95384026 0.29768148 -0.039681554 
-0.9347883 0.35449585 -0.022443332 
-0.91233873 0.4093882 -0.0062689106 
-0.884233 0.46697477 0.008157316 
0 0 0 
0 0 0 
0 0 0 
0 0 0 
0 0 0 
0 0 0 
0 0 0 
0 0 0 
0 0 0 
0.26447225 0.9511493 0.15927848 
0.10812982 0.98242193 0.15216838 
-0.06241425 0.9892464 0.13227242 
-0.24161014 0.96493554 0.10258641 
-0.41934577 0.90545434 0.065587305 
-0.57492554 0.8177481 0.02736085 
-0.6988972 0.7151713 -0.008529596 
-0.7893387 0.6125701 -0.041258436 
-0.8513717 0.5197545 -0.070862055 
-0.89195716 0.441289 -0.09836916 
-0.91860443 0.3756989 -0.12254143 
-0.93675 0.31980485 -0.14221232 
-0.950845 0.26840904 -0.15443599 
-0.9629015 0.2180862 -0.1589313 
-0.97378486 0.16536538 -0.15619631 
-0.9824438 0.10926647 -0.15121216 
-0.98755217 0.04879596 -0.14953206 
-0.9872133 -0.01502109 -0.15869574 
-0.97968876 -0.081573196 -0.18318242 
-0.9628862 -0.14853631 -0.22536011 
-0.9352388 -0.21387437 -0.28211063 
-0.8966312 -0.2742365 -0.34763065 
-0.8498579 -0.3274477 -0.41294003 
-0.80047333 -0.3717605 -0.47014526 
-0.75582516 -0.4075674 -0.5124619 
-0.7224461 -0.43579778 -0.5367978 
-0.70464486 -0.45799026 -0.54196006 
-0.7030805 -0.4747243 -0.52944756 
-0.71592224 -0.485855 -0.5013984 
-0.7394325 -0.49036282 -0.461285 
-0.769996 -0.4870304 -0.41219842 
-0.80413777 -0.47491968 -0.35751075 
-0.83918786 -0.45378727 -0.2997349 
-0.87256074 -0.4245305 -0.24168491 
-0.90216666 -0.38923323 -0.18599185 
-0.9264854 -0.35097477 -0.13579969 
-0.94508207 -0.31310457 -0.09373091 
-0.95858866 -0.27804136 -0.061651837 
-0.9682959 -0.24662235 -0.03975757 
-0.9757163 -0.21735828 -0.027076174 
-0.98202485 -0.18752927 -0.021447517 
-0.987919 -0.1535449 -0.020978129 
-0.99329346 -0.11316975 -0.023679422 
-0.99744767 -0.06534027 -0.02878923 
-0.999313 -0.011653296 -0.035181683 
-0.99805766 0.045547117 -0.04250232 
-0.9934879 0.102788754 -0.049155157 
-0.9859122 0.15826094 -0.05413642 
-0.97589016 0.21110374 -0.055441476 
-0.9635257 0.26248494 -0.052153487 
-0.9484757 0.3138624 -0.043406352 
-0.92985 0.36669898 -0.030181821 
-0.9065966 0.42175758 -0.014254923 
-0.8786755 0.47741926 0.00053667603 
-0.8449237 0.5347506 0.012069823 
-0.8028071 0.59596354 0.018121729 
0 0 0 
0 0 0 
0 0 0 
0 0 0 
0 0 0 
0 0 0 
0 0 0 
0.46918106 0.8742973 0.12439229 
0.35686275 0.9238412 0.13844307 
0.21574974 0.9662655 0.14065288 
0.052073333 0.9898205 0.13245349 
-0.1265085 0.98525625 0.11517734 
-0.3082125 0.9470511 0.0899962 
-0.47751978 0.87658197 0.059825372 
-0.621257 0.78316 0.02646264 
-0.73337376 0.67977333 -0.008441027 
-0.81395423 0.5792004 -0.04478108 
-0.868661 0.48870096 -0.08123829 
-0.90401083 0.41126072 -0.11674368 
-0.9269991 0.34473798 -0.14774433 
-0.94253844 0.2864882 -0.17188932 
-0.95462984 0.23241177 -0.18618974 
-0.9647083 0.18059473 -0.19163373 
-0.97319853 0.1288902 -0.19045241 
-0.9788964 0.07748217 -0.18909888 
-0.9807158 0.025988763 -0.19370398 
-0.97715545 -0.024301449 -0.2111322 
-0.9669414 -0.072956875 -0.244339 
-0.948581 -0.11814727 -0.2936588 
-0.9214898 -0.15895894 -0.35438496 
-0.88669217 -0.19394113 -0.41971886 
-0.8478883 -0.22346513 -0.48077938 
-0.8106258 -0.24843982 -0.5302487 
-0.78110194 -0.27120274 -0.56243116 
-0.763665 -0.2934753 -0.57505476 
-0.75996995 -0.31626016 -0.567825 
-0.76845217 -0.33869162 -0.54292667 
-0.7860382 -0.3586731 -0.50348544 
-0.809132 -0.37325826 -0.4538545 
-0.8350696 -0.3797026 -0.39810157 
-0.86182314 -0.37612993 -0.34027517 
-0.8879387 -0.36212122 -0.28360754 
-0.9120112 -0.3387881 -0.23121054 
-0.932853 -0.30874285 -0.18564267 
-0.9498004 -0.27511546 -0.14896561 
-0.96283406 -0.24098884 -0.12196287 
-0.9726142 -0.20779617 -0.104126275 
-0.98002106 -0.1755721 -0.09345187 
-0.9859554 -0.14219768 -0.08758871 
-0.9908855 -0.10539442 -0.0838926 
-0.99474835 -0.06254077 -0.08102128 
-0.99688053 -0.0131299 -0.077826135 
-0.99630415 0.042520788 -0.074632294 
-0.992268 0.10178868 -0.07101539 
-0.9844129 0.16248177 -0.06731211 
-0.97304726 0.22198744 -0.062456504 
-0.9584554 0.27966663 -0.056124568 
-0.9409308 0.3353058 -0.047109827 
-0.9201549 0.38992864 -0.03564437 
-0.89563763 0.4442357 -0.02208688 
-0.8666876 0.49877867 -0.008507267 
-0.8328937 0.55342585 0.0028040833 
-0.7934535 0.6085586 0.009381444 
-0.746918 0.66484874 0.009468216 
-0.6919991 0.7218964 0.0017303103 
0 0 0 
0 0 0 
0 0 0 
0 0 0 
0 0 0 
0.5704376 0.8185192 0.06802563 
0.50487554 0.85817957 0.092890985 
0.40618485 0.9070833 0.11051617 
0.27832156 0.95290875 0.12042398 
0.12620915 0.984396 0.12262118 
-0.04337464 0.99221534 0.11673632 
-0.2211015 0.96979505 0.1030133 
-0.3938452 0.9155573 0.08149155 
-0.5490239 0.8341203 0.053067878 
-0.6766606 0.73607594 0.01796503 
-0.77361715 0.63326246 -0.02225439 
-0.8415251 0.53612536 -0.06637137 
-0.8864162 0.44943145 -0.11080443 
-0.91447294 0.3748598 -0.15237908 
-0.93231404 0.31008554 -0.18611163 
-0.9443788 0.25337374 -0.2096438 
-0.95411533 0.20184526 -0.22118436 
-0.9622934 0.15490729 -0.22359641 
-0.96889585 0.11136784 -0.2209936 
-0.9726484 0.0720717 -0.22081828 
-0.9726739 0.03688265 -0.22922753 
-0.96774876 0.0070943483 -0.2518175 
-0.9569067 -0.017220996 -0.28988487 
-0.93912446 -0.035244994 -0.34176466 
-0.914598 -0.047987908 -0.40150696 
-0.88526195 -0.05691301 -0.46159753 
-0.8554522 -0.06554735 -0.51371694 
-0.830524 -0.07742073 -0.5515758 
-0.81526244 -0.09596613 -0.57108474 
-0.81168044 -0.12244801 -0.5711229 
-0.81879854 -0.1559521 -0.55249256 
-0.833272 -0.19298922 -0.51808584 
-0.85146105 -0.22865939 -0.4719416 
-0.87061924 -0.2577274 -0.41904503 
-0.8894687 -0.27611214 -0.3641531 
-0.907572 -0.28152886 -0.31153607 
-0.9246168 -0.27406663 -0.26452073 
-0.9401369 -0.25549284 -0.22553489 
-0.9534826 -0.22913796 -0.19587469 
-0.9643436 -0.19809721 -0.17549676 
-0.97273594 -0.16513617 -0.1628341 
-0.97916067 -0.13081223 -0.15534686 
-0.9841676 -0.09474792 -0.14979048 
-0.98809785 -0.05468542 -0.14377868 
-0.9907525 -0.009218904 -0.135368 
-0.9912723 0.043147437 -0.12457021 
-0.9885824 0.10139946 -0.111459024 
-0.98157716 0.1643051 -0.09751968 
-0.96991765 0.22881623 -0.083084546 
-0.9535687 0.2931265 -0.0691639 
-0.933143 0.35523307 -0.055260357 
-0.9088988 0.41492382 -0.041730016 
-0.8811068 0.47207558 -0.028203882 
-0.8495276 0.5273098 -0.015728418 
-0.81388694 0.5809993 -0.0052900924 
-0.77383965 0.63338065 0.0010452418 
-0.72875446 0.6847729 0.001764792 
-0.6778806 0.7351576 -0.0046140337 
-0.6203346 0.78411776 -0.018558124 
-0.5561505 0.8301463 -0.039419148 
0 0 0 
0 0 0 
0 0 0 
0.58863515 0.8083311 0.010468048 
0.5606519 0.8272739 0.03588229 
0.5007862 0.8635196 0.059558164 
0.41074884 0.9082473 0.07982695 
0.29384542 0.95106566 0.09554557 
0.15428682 0.98238003 0.10547515 
-0.0028319976 0.9940577 0.1088178 
-0.17003809 0.9799199 0.10413534 
-0.33777332 0.93684703 0.09070248 
-0.49422368 0.8667302 0.06724392 
-0.6294408 0.7763018 0.034057297 
-0.7365465 0.6763345 -0.008422442 
-0.8149826 0.5766591 -0.057164807 
-0.86765 0.48508996 -0.108954884 
-0.9008975 0.4042117 -0.15810323 
-0.9207147 0.33495957 -0.20021653 
-0.9333548 0.2752846 -0.23036346 
-0.94254243 0.22444569 -0.24746297 
-0.95076656 0.18058184 -0.25185943 
-0.9578872 0.14403486 -0.24840742 
-0.96333057 0.114255376 -0.24277563 
-0.96571016 0.09254992 -0.24256629 
-0.9641741 0.07901891 -0.25322783 
-0.957547 0.07476829 -0.27841258 
-0.944963 0.078947864 -0.31750935 
-0.9259035 0.09020643 -0.36683166 
-0.90165585 0.10438 -0.41966844 
-0.8756702 0.116368555 -0.46867928 
-0.85336185 0.11995855 -0.5073298 
-0.839926 0.11043999 -0.53134483 
-0.83824134 0.08514984 -0.53861016 
-0.8474845 0.044851683 -0.52892184 
-0.8638573 -0.006540498 -0.50369424 
-0.8825599 -0.062347695 -0.46604818 
-0.89996564 -0.1148872 -0.42055047 
-0.9146672 -0.15715696 -0.37240544 
-0.9269492 -0.18468192 -0.32658496 
-0.9377644 -0.19567886 -0.28689346 
-0.94757193 -0.1914385 -0.25584933 
-0.9563719 -0.17462139 -0.23422258 
-0.9637372 -0.14921857 -0.2212342 
-0.9695515 -0.11805703 -0.21455199 
-0.9739739 -0.08344732 -0.21074039 
-0.9774275 -0.045129403 -0.20639488 
-0.98012066 -0.0025770017 -0.19838552 
-0.9815589 0.0462441 -0.18548197 
-0.9806714 0.10161226 -0.16720805 
-0.9757407 0.16382003 -0.14523488 
-0.96551746 0.23055089 -0.120923035 
-0.94904643 0.2999056 -0.09678575 
-0.9266253 0.36866987 -0.07381046 
-0.89870316 0.43528458 -0.05347876 
-0.8663424 0.4981705 -0.03573714 
-0.8300501 0.55727994 -0.021355182 
-0.79028213 0.612655 -0.0104041165 
-0.7470188 0.6647905 -0.0040528425 
-0.70004874 0.71408844 -0.0030681533 
-0.64909315 0.76065993 -0.008640882 
-0.5936851 0.8044205 -0.021111226 
-0.5340117 0.844519 -0.04024017 
-0.47104034 0.8797665 -0.06427983 
-0.40797648 0.9085538 -0.089917876 
0 0 0 
0 0 0 
0.53968376 0.8417252 -0.015497637 
0.5143565 0.8575707 0.0031555742 
0.45764637 0.88875467 0.025981847 
0.37313464 0.9265088 0.048498522 
0.26484218 0.9618681 0.068326525 
0.13681732 0.9870297 0.08398545 
-0.006534215 0.99559194 0.09356327 
-0.16001794 0.9824746 0.09559283 
-0.3161238 0.944647 0.08779446 
-0.4660451 0.8820735 0.0689093 
-0.59977907 0.7992827 0.037578944 
-0.7102873 0.7038943 -0.004987188 
-0.79369754 0.60565794 -0.056769256 
-0.8516741 0.5118228 -0.1126441 
-0.8881945 0.4278194 -0.1675743 
-0.90994155 0.35472402 -0.21488927 
-0.9226433 0.29325336 -0.25046337 
-0.9317317 0.24177781 -0.27096063 
-0.93961936 0.20034146 -0.2774505 
-0.9473484 0.16783988 -0.2726918 
-0.95377105 0.1453667 -0.2630387 
-0.9577682 0.13305551 -0.25490448 
-0.9578033 0.13268396 -0.25496662 
-0.95279115 0.14437371 -0.26710543 
-0.94139206 0.16815923 -0.29241005 
-0.92296594 0.20088482 -0.32829764 
-0.89829624 0.23758999 -0.3696145 
-0.8709545 0.27055532 -0.41016832 
-0.84686166 0.29214528 -0.44438332 
-0.8324361 0.295757 -0.46859154 
-0.8317674 0.2777909 -0.48061985 
-0.84464085 0.23786251 -0.47958678 
-0.86674654 0.17942436 -0.4653573 
-0.89158136 0.10947072 -0.4394301 
-0.91357726 0.037525095 -0.40493035 
-0.9299229 -0.026836587 -0.36677432 
-0.940915 -0.076049335 -0.3299932 
-0.94825554 -0.106493086 -0.29911673 
-0.9537349 -0.11769597 -0.27665398 
-0.9581027 -0.1124674 -0.26342046 
-0.96155053 -0.09418542 -0.25797236 
-0.96398443 -0.06707846 -0.25736102 
-0.96566206 -0.03327823 -0.25766128 
-0.9669965 0.005587939 -0.25472873 
-0.9680332 0.050501063 -0.24568583 
-0.9681704 0.101820625 -0.22864519 
-0.9656023 0.16093189 -0.2042384 
-0.95832956 0.22673894 -0.17376392 
-0.94409716 0.29822177 -0.14051518 
-0.922061 0.37196773 -0.10697476 
-0.89199156 0.445562 -0.076325744 
-0.85521555 0.5158685 -0.049861267 
-0.8129398 0.58161986 -0.02910805 
-0.7667342 0.6418106 -0.0140631525 
-0.71736157 0.6966803 -0.005391643 
-0.6652559 0.7466093 -0.003025233 
-0.610423 0.7920395 -0.0075725685 
-0.552579 0.8332447 -0.018969623 
-0.49187702 0.8698761 -0.03704809 
-0.42893437 0.9013158 -0.060375646 
-0.3668048 0.926315 -0.08599324 
-0.31497926 0.94302166 -0.10723069 
0 0 0 
0.45957705 0.88368005 -0.08887465 
0.4652654 0.8832499 -0.058292028 
0.43655443 0.89907444 -0.032947533 
0.37912378 0.9253157 -0.007482577 
0.2973453 0.95460767 0.017605415 
0.19576873 0.97979826 0.040865928 
0.07838464 0.99510056 0.06025593 
-0.051176563 0.99593896 0.07407208 
-0.18893449 0.97873366 0.07990096 
-0.329973 0.9409333 0.075910196 
-0.46717164 0.88215244 0.0596475 
-0.5929296 0.80468065 0.030390847 
-0.6994945 0.71453756 -0.011983631 
-0.78281355 0.61892164 -0.06433462 
-0.8417258 0.52580297 -0.122592725 
-0.87978756 0.4399742 -0.17999077 
-0.9018893 0.3651367 -0.23080476 
-0.91473 0.301458 -0.26905778 
-0.9231658 0.24961582 -0.29233024 
-0.9309681 0.20831944 -0.29983574 
-0.93875414 0.17824574 -0.29490557 
-0.94604635 0.15910773 -0.28227845 
-0.950981 0.15288404 -0.26881546 
-0.9520272 0.1604921 -0.26055044 
-0.9473764 0.18377027 -0.26211938 
-0.93546736 0.22182061 -0.27513003 
-0.9150133 0.27195305 -0.2979802 
-0.88660914 0.3273277 -0.32677335 
-0.8539199 0.37926278 -0.35634318 
-0.82381094 0.4182555 -0.38261983 
-0.8042966 0.43694767 -0.4027207 
-0.8011493 0.43075374 -0.41546494 
-0.8155952 0.39835146 -0.4196671 
-0.8433517 0.3418053 -0.414641 
-0.8767485 0.26709703 -0.39996397 
-0.9076276 0.1838438 -0.3773775 
-0.9309299 0.1035299 -0.35021588 
-0.9455136 0.036147114 -0.32356974 
-0.9533233 -0.011667028 -0.3017262 
-0.9568975 -0.03821907 -0.28790024 
-0.95820993 -0.044679597 -0.2825551 
-0.95810866 -0.035106823 -0.28424513 
-0.95711225 -0.0129672745 -0.28942707 
-0.9557489 0.017967515 -0.29363462 
-0.95455706 0.056681193 -0.29258862 
-0.9537321 0.10227999 -0.2827259 
-0.9521452 0.15609539 -0.26278082 
-0.9478206 0.21782607 -0.23278297 
-0.9375556 0.28770602 -0.19548598 
-0.9189466 0.36309224 -0.15395188 
-0.8900706 0.44165638 -0.11275624 
-0.8513339 0.5192351 -0.075003885 
-0.8038492 0.5932121 -0.04388337 
-0.75014436 0.66095984 -0.02038775 
-0.69212323 0.72175825 -0.005520438 
-0.6315029 0.77537274 0.0011476323 
-0.5689902 0.8223442 -0.0004765882 
-0.5047353 0.8632192 -0.009742977 
-0.4388296 0.8981849 -0.026316188 
-0.37132192 0.92720896 -0.049026888 
-0.30322176 0.94986105 -0.076292835 
-0.23553887 0.96611696 -0.10554404 
-0.16789524 0.97661597 -0.13428529 
-0.08636164 0.9828059 -0.16320004 
0.38103482 0.918334 -0.10712304 
0.36797827 0.92558986 -0.08874373 
0.33032557 0.9416548 -0.0645865 
0.26933634 0.96230274 -0.037835605 
0.18892787 0.98193467 -0.010516815 
0.09327478 0.995526 0.015096223 
-0.013770033 0.99921983 0.037017804 
-0.12933001 0.99019116 0.052870914 
-0.25073394 0.9661457 0.06078697 
-0.37448758 0.9254013 0.058238104 
-0.4959743 0.8672388 0.043663234 
-0.6086707 0.7932737 0.015393982 
-0.7065912 0.7071534 -0.025749644 
-0.78446925 0.6152589 -0.077875525 
-0.84110314 0.5235507 -0.13579544 
-0.8777174 0.4381633 -0.19397226 
-0.8993387 0.36193943 -0.24533604 
-0.9112142 0.29737267 -0.28505826 
-0.9191362 0.2439857 -0.3092888 
-0.9262108 0.20243031 -0.31804973 
-0.93401253 0.17184788 -0.31319138 
-0.9415523 0.15374963 -0.29973415 
-0.94734675 0.14898814 -0.28343737 
-0.9492695 0.1604744 -0.2704356 
-0.94538933 0.18946895 -0.26521805 
-0.93343407 0.23666288 -0.26961374 
-0.91155016 0.29850698 -0.28278977 
-0.87958074 0.3682771 -0.30118054 
-0.84095895 0.4356484 -0.32093394 
-0.8031675 0.4902899 -0.33843434 
-0.7755357 0.52383655 -0.3523346 
-0.7659815 0.53134984 -0.36185592 
-0.7774048 0.5108928 -0.36692017 
-0.8069727 0.46326903 -0.36630175 
-0.84654987 0.39276895 -0.3592855 
-0.88643 0.30781028 -0.34568006 
-0.9187071 0.21994871 -0.3280243 
-0.94019717 0.14118849 -0.3099922 
-0.95173126 0.08010562 -0.29629487 
-0.9562363 0.041105185 -0.2896939 
-0.95636296 0.023521911 -0.2912331 
-0.9539427 0.024901187 -0.29895377 
-0.9501292 0.040765308 -0.30918092 
-0.94593614 0.0684055 -0.31705776 
-0.9423431 0.10509514 -0.3177176 
-0.9393915 0.15098839 -0.3078087 
-0.9361163 0.20557205 -0.2853532 
-0.92951465 0.26987204 -0.25134 
-0.91623586 0.3424067 -0.20801319 
-0.8923932 0.42188117 -0.16015856 
-0.8562788 0.50418544 -0.11217716 
-0.8074088 0.5859256 -0.069153056 
-0.74807566 0.6627456 -0.033928264 
-0.6809169 0.73230714 -0.008860893 
-0.609301 0.7929166 0.0059684003 
-0.53536344 0.8445568 0.010487615 
-0.46050218 0.88763946 0.005822249 
-0.38526797 0.9227755 -0.0073386636 
-0.30985412 0.95038414 -0.027576057 
-0.23517175 0.97048014 -0.0535026 
-0.16266373 0.98319685 -0.08285274 
-0.09534966 0.9890211 -0.11289671 
-0.03714737 0.98944193 -0.14008851 
0.004980279 0.9871648 -0.15962744 
0.2645324 0.9556079 -0.12975504 
0.24317065 0.9632408 -0.11417192 
0.1987483 0.9758825 -0.09029197 
0.13491504 0.98889726 -0.06229032 
0.05614033 0.9978638 -0.03340733 
-0.033071082 0.99943346 -0.0062614894 
-0.12959285 0.99142885 0.01657074 
-0.23109712 0.9723665 0.033129398 
-0.33595914 0.94097817 0.041129943 
-0.44215834 0.89608985 0.038975652 
-0.54627734 0.8372429 0.024604436 
-0.6439757 0.7650419 -0.0025394796 
-0.72963595 0.6825089 -0.042579208 
-0.7992632 0.5937886 -0.09270113 
-0.85019815 0.504907 -0.14910415 
-0.8838158 0.4203382 -0.20539126 
-0.9031935 0.34459198 -0.25592583 
-0.9139079 0.27893823 -0.29489973 
-0.9204858 0.22487918 -0.31958622 
-0.9267719 0.1814993 -0.3288646 
-0.93375975 0.14966162 -0.32510662 
-0.9411582 0.12938254 -0.31222022 
-0.947212 0.12336279 -0.29592416 
-0.9501213 0.1336902 -0.281774 
-0.9476947 0.16366708 -0.27402157 
-0.93744916 0.21374033 -0.27478045 
-0.9167654 0.2819054 -0.28296748 
-0.8844361 0.36088863 -0.29585877 
-0.84291446 0.44028452 -0.30926487 
-0.7992151 0.5083878 -0.3206202 
-0.7635743 0.55595195 -0.32843825 
-0.7452967 0.5774269 -0.3333332 
-0.7497099 0.5705025 -0.3353535 
-0.77554584 0.5354019 -0.33447492 
-0.8160216 0.47500437 -0.32936233 
-0.8606901 0.39606202 -0.31991777 
-0.90004396 0.30925024 -0.30705878 
-0.9284154 0.22666651 -0.29439294 
-0.94510686 0.15884125 -0.2855566 
-0.9523565 0.11132844 -0.28394216 
-0.95315605 0.08580102 -0.2900549 
-0.9498908 0.07970403 -0.30224964 
-0.94433594 0.090251915 -0.31636113 
-0.93812585 0.11354305 -0.3271512 
-0.9324024 0.14821891 -0.32963157 
-0.92771596 0.19269235 -0.31970757 
-0.9224942 0.24783303 -0.2959448 
-0.9139095 0.3128915 -0.2585893 
-0.8971695 0.3879413 -0.21115996 
-0.868403 0.4700155 -0.15799282 
-0.82435375 0.55619633 -0.10529314 