# OOMMF OVF 2.0
# Segment count: 1
# Begin: Segment
# Begin: Header
# Title: m
# meshtype: rectangular
# meshunit: m
# xmin: 0
# ymin: 0
# zmin: 0
# xmax: 1.6e-07
# ymax: 8e-08
# zmax: 5e-09
# valuedim: 3
# valuelabels: m_x m_y m_z
# valueunits: 1 1 1
# Desc: Total simulation time:  6.001046806353205e-10  s
# xbase: 1.25e-09
# ybase: 1.25e-09
# zbase: 2.5e-09
# xnodes: 64
# ynodes: 32
# znodes: 1
# xstepsize: 2.5e-09
# ystepsize: 2.5e-09
# zstepsize: 5e-09
# End: Header
# Begin: Data Text
0 0 0 
0 0 0 
0 0 0 
0 0 0 
0 0 0 
0 0 0 
0 0 0 
0 0 0 
0 0 0 
0 0 0 
0 0 0 
0 0 0 
0 0 0 
0 0 0 
0 0 0 
0 0 0 
0 0 0 
0 0 0 
0 0 0 
0 0 0 
0 0 0 
0 0 0 
0 0 0 
0 0 0 
0.49951145 0.7182305 -0.4843897 
0.5127606 0.7175004 -0.47145507 
0.52397543 0.724189 -0.4483303 
0.5306523 0.7389115 -0.41523257 
0.5317192 0.76137316 -0.37092528 
0.52580476 0.79067785 -0.31362063 
0.5108126 0.8248702 -0.24219756 
0.48411894 0.86073595 -0.15736121 
0.4434444 0.89411616 -0.06255787 
0.38797978 0.92096364 0.03602213 
0.3193468 0.9386136 0.13046953 
0.2418487 0.9466488 0.2129917 
0.16193715 0.9469056 0.27775225 
0.08733101 0.9427182 0.32195628 
0.026297525 0.9378462 0.3460536 
-0.011734189 0.935346 0.35353962 
0 0 0 
0 0 0 
0 0 0 
0 0 0 
0 0 0 
0 0 0 
0 0 0 
0 0 0 
0 0 0 
0 0 0 
0 0 0 
0 0 0 
0 0 0 
0 0 0 
0 0 0 
0 0 0 
0 0 0 
0 0 0 
0 0 0 
0 0 0 
0 0 0 
0 0 0 
0 0 0 
0 0 0 
0 0 0 
0 0 0 
0 0 0 
0 0 0 
0 0 0 
0 0 0 
0 0 0 
0 0 0 
0 0 0 
0 0 0 
0 0 0 
0 0 0 
0 0 0 
0 0 0 
0 0 0 
0 0 0 
0 0 0 
0 0 0 
0.40103582 0.8405578 -0.3641879 
0.42164323 0.82093996 -0.3850642 
0.44548732 0.79591703 -0.40994778 
0.46846792 0.7709705 -0.4314421 
0.48787317 0.75016785 -0.44634962 
0.50069964 0.73675776 -0.45440942 
0.50637984 0.73101205 -0.45738485 
0.51788396 0.7311689 -0.44405892 
0.52802855 0.737307 -0.42138368 
0.53412336 0.7501399 -0.38987467 
0.5350505 0.769705 -0.3482461 
0.52969545 0.79529804 -0.2948282 
0.5162811 0.8253725 -0.22850382 
0.4925901 0.8572467 -0.14994389 
0.456528 0.8875319 -0.06220516 
0.40717217 0.9128851 0.029181559 
0.34553063 0.93106073 0.117194206 
0.27486193 0.9415417 0.1948086 
0.20037359 0.9455474 0.25649688 
0.12834461 0.9455198 0.299199 
0.065126665 0.9443955 0.32229763 
0.014608012 0.94507354 0.32653126 
-0.03253083 0.95069903 0.30840424 
-0.08933483 0.9552674 0.2819282 
-0.14056037 0.95873344 0.2471294 
-0.18145935 0.961288 0.20735951 
-0.20981763 0.9633189 0.1673124 
-0.223916 0.965129 0.13560085 
0 0 0 
0 0 0 
0 0 0 
0 0 0 
0 0 0 
0 0 0 
0 0 0 
0 0 0 
0 0 0 
0 0 0 
0 0 0 
0 0 0 
0 0 0 
0 0 0 
0 0 0 
0 0 0 
0 0 0 
0 0 0 
0 0 0 
0 0 0 
0 0 0 
0 0 0 
0 0 0 
0 0 0 
0 0 0 
0 0 0 
0 0 0 
0 0 0 
0 0 0 
0 0 0 
0 0 0 
0 0 0 
0 0 0 
0.34264252 0.9144406 -0.21539408 
0.3602425 0.9037188 -0.23133922 
0.3767932 0.8877051 -0.2645874 
0.3944174 0.86307 -0.31550798 
0.41811025 0.83882666 -0.34864563 
0.44364563 0.8133178 -0.37642092 
0.46828258 0.7887864 -0.39815524 
0.48980135 0.7682406 -0.41219074 
0.5064887 0.75427526 -0.41777763 
0.51892984 0.74738884 -0.41487566 
0.5308604 0.74612176 -0.40185764 
0.5406694 0.75000167 -0.38101712 
0.5468438 0.7593356 -0.35266325 
0.54869837 0.77408934 -0.31577793 
0.54545325 0.7939111 -0.26867422 
0.5358867 0.81768405 -0.21028107 
0.51810515 0.84363437 -0.14088337 
0.49018893 0.8693382 -0.06297638 
0.45078278 0.8924336 0.018902741 
0.39995715 0.91119576 0.09877552 
0.33952263 0.9250266 0.1704411 
0.27291074 0.9344572 0.22871318 
0.20464356 0.94081473 0.27016416 
0.13895445 0.9458117 0.29348236 
0.07798737 0.95110565 0.29885805 
0.018722804 0.9577244 0.28707743 
-0.04105583 0.9639548 0.26287964 
-0.095620446 0.9687481 0.22887534 
-0.14120577 0.971985 0.18789949 
-0.17666836 0.97401404 0.14172149 
-0.20336848 0.97511494 0.088273525 
-0.231918 0.97269326 0.009049606 
-0.26472867 0.96263814 -0.0569795 
-0.2856507 0.952765 -0.10316339 
0 0 0 
0 0 0 
0 0 0 
0 0 0 
0 0 0 
0 0 0 
0 0 0 
0 0 0 
0 0 0 
0 0 0 
0 0 0 
0 0 0 
0 0 0 
0 0 0 
0 0 0 
0 0 0 
0 0 0 
0 0 0 
0 0 0 
0 0 0 
0 0 0 
0 0 0 
0 0 0 
0 0 0 
0 0 0 
0 0 0 
0 0 0 
0.22821233 0.94253385 -0.24402669 
0.25670955 0.9401283 -0.22418506 
0.28657684 0.93567014 -0.20590068 
0.3187003 0.92630416 -0.2009744 
0.34526578 0.91467845 -0.21013086 
0.36803803 0.89978135 -0.23439622 
0.39080465 0.88037866 -0.2687103 
0.4168315 0.8579235 -0.30036452 
0.44478497 0.8335623 -0.32762823 
0.47240275 0.8095194 -0.34858865 
0.49766096 0.7884658 -0.3614627 
0.51910686 0.7724978 -0.36575302 
0.5365878 0.762384 -0.36172405 
0.55099237 0.7575062 -0.3501312 
0.56207633 0.75741816 -0.33224672 
0.5696191 0.76183146 -0.30845904 
0.5735529 0.7706568 -0.2777142 
0.57379925 0.7834999 -0.2385002 
0.5695218 0.79985505 -0.18941173 
0.5593076 0.8186367 -0.13041836 
0.5411329 0.8385609 -0.063173234 
0.51326275 0.8581876 0.008683792 
0.47469974 0.87648827 0.08017892 
0.42583352 0.8929681 0.14585525 
0.3684662 0.9077138 0.20071997 
0.3053804 0.9211928 0.24113601 
0.2396984 0.9339778 0.26501003 
0.17342533 0.9465495 0.27197027 
0.10729474 0.9588516 0.26285282 
0.042130414 0.9698069 0.24020763 
-0.018731577 0.9782567 0.2065501 
-0.07309978 0.9837018 0.16427808 
-0.12035532 0.98606664 0.11483622 
-0.1627163 0.9849965 0.057491798 
-0.20471114 0.9787681 -0.010320396 
-0.247309 0.96569294 -0.07921765 
-0.28768057 0.9458246 -0.15051802 
-0.336714 0.90959615 -0.24343087 
-0.3731484 0.87383616 -0.3117221 
-0.38706687 0.85162055 -0.35344255 
0 0 0 
0 0 0 
0 0 0 
0 0 0 
0 0 0 
0 0 0 
0 0 0 
0 0 0 
0 0 0 
0 0 0 
0 0 0 
0 0 0 
0 0 0 
0 0 0 
0 0 0 
0 0 0 
0 0 0 
0 0 0 
0 0 0 
0 0 0 
0 0 0 
0 0 0 
0.071633615 0.92850053 -0.36435616 
0.1090529 0.9400024 -0.3232691 
0.17442189 0.9487047 -0.2636975 
0.2231587 0.9491022 -0.22227293 
0.26219127 0.94538075 -0.19367747 
0.29637843 0.9380605 -0.17944993 
0.32722303 0.9275678 -0.18039742 
0.35613456 0.9137943 -0.19531548 
0.3852533 0.8962648 -0.21974844 
0.4162318 0.87524414 -0.24637161 
0.44861245 0.85168314 -0.2708925 
0.4808008 0.82751113 -0.28992411 
0.51091963 0.80498 -0.30160967 
0.53743917 0.7861042 -0.30528572 
0.55959994 0.77186304 -0.30178714 
0.57734805 0.76238704 -0.29229313 
0.5909316 0.75723845 -0.2781902 
0.600777 0.7560822 -0.25962856 
0.6076543 0.758393 -0.23578894 
0.6118841 0.7639566 -0.20486134 
0.6133033 0.7723411 -0.16537374 
0.61059016 0.78331 -0.11664095 
0.6018969 0.7963349 -0.05975831 
0.5849314 0.81107885 0.0025415514 
0.55800503 0.82720435 0.06605565 
0.5203064 0.8446507 0.12588291 
0.47231862 0.86340743 0.17732146 
0.41563553 0.88341075 0.2164087 
0.35235152 0.90440184 0.24063608 
0.28476825 0.92574394 0.2488078 
0.21463174 0.94642013 0.24129279 
0.14421445 0.96487 0.21960904 
0.07577725 0.97963315 0.18594855 
0.011390431 0.989713 0.14261313 
-0.048718724 0.99462736 0.09133997 
-0.10540047 0.9938801 0.033065416 
-0.16065942 0.9865001 -0.03171956 
-0.21469435 0.97154933 -0.09999104 
-0.26654318 0.9484179 -0.17163399 
-0.31572542 0.91596335 -0.24764639 
-0.3524841 0.88131183 -0.3147133 
-0.3704951 0.85088956 -0.37245205 
-0.37407532 0.8212027 -0.4309222 
-0.3681006 0.80584234 -0.46381038 
0 0 0 
0 0 0 
0 0 0 
0 0 0 
0 0 0 
0 0 0 
0 0 0 
0 0 0 
0 0 0 
0 0 0 
0 0 0 
0 0 0 
0 0 0 
0 0 0 
0 0 0 
0 0 0 
0 0 0 
0 0 0 
-0.03152042 0.85972023 -0.5097918 
-0.01844028 0.88502514 -0.465178 
0.027458537 0.9198191 -0.39138052 
0.075708516 0.9415877 -0.3281476 
0.13061127 0.9548757 -0.26674554 
0.18147352 0.9593906 -0.21595639 
0.22643733 0.95760345 -0.17810619 
0.26673383 0.95122325 -0.15500759 
0.30416656 0.9411976 -0.14707118 
0.3404003 0.92774314 -0.15303738 
0.37698603 0.91068834 -0.16890392 
0.414807 0.8899545 -0.18951555 
0.45350322 0.86619556 -0.2098573 
0.49170133 0.8408199 -0.22638835 
0.5276011 0.8158616 -0.23665838 
0.559532 0.7932198 -0.24026303 
0.5863913 0.77432865 -0.23782462 
0.6079361 0.75964975 -0.2309678 
0.62451494 0.7491637 -0.22076021 
0.63720965 0.74220604 -0.20759116 
0.647088 0.7382837 -0.19030057 
0.6551912 0.7367247 -0.16721635 
0.6614535 0.7374864 -0.13635646 
0.66505677 0.74048674 -0.09684526 
0.66390896 0.7462016 -0.04907371 
0.655718 0.75499105 0.0047328332 
0.6381145 0.7675213 0.060999088 
0.60969335 0.78420603 0.11530374 
0.57001007 0.8052972 0.16304901 
0.519729 0.83051294 0.20032467 
0.46037078 0.8589824 0.22407182 
0.39373788 0.88927203 0.23273575 
0.32211125 0.91935015 0.22591966 
0.24757217 0.94700855 0.20465304 
0.17266496 0.97007114 0.17073026 
0.09894126 0.98703057 0.12641792 
0.02760355 0.9968796 0.07395455 
-0.041495733 0.9990248 0.015088502 
-0.108263955 0.99294096 -0.048448898 
-0.17224136 0.9783384 -0.11483465 
-0.23154637 0.95552427 -0.18264648 
-0.28334934 0.92576635 -0.25033954 
-0.32203436 0.8934103 -0.31322813 
-0.3436321 0.86296654 -0.37041304 
-0.34801412 0.8366732 -0.42292333 
-0.33463448 0.8193932 -0.46541885 
-0.30253905 0.8102466 -0.50196683 
-0.27649885 0.80738664 -0.52122474 
0 0 0 
0 0 0 
0 0 0 
0 0 0 
0 0 0 
0 0 0 
0 0 0 
0 0 0 
0 0 0 
0 0 0 
0 0 0 
0 0 0 
0 0 0 
0 0 0 
0.02694563 0.7813389 -0.623525 
-0.0022169717 0.80662 -0.5910663 
-0.026806368 0.8478321 -0.52958673 
-0.025371982 0.8830231 -0.46864334 
-0.0008046304 0.91688204 -0.39915764 
0.03762162 0.9430582 -0.33049327 
0.08481363 0.9605286 -0.26493683 
0.13450533 0.9689753 -0.20735288 
0.18310076 0.9697497 -0.16143021 
0.22971822 0.9645989 -0.12953235 
0.27481028 0.9548716 -0.11269298 
0.31943816 0.94124585 -0.10961554 
0.36456656 0.92374676 -0.11740118 
0.41060126 0.9023077 -0.13132985 
0.45699024 0.87723064 -0.14705947 
0.50231856 0.84965706 -0.16049573 
0.5447104 0.8213216 -0.16947378 
0.5823382 0.7943211 -0.17302087 
0.6140363 0.77030003 -0.17203893 
0.6394242 0.7503514 -0.16765912 
0.65922517 0.7344647 -0.16119479 
0.67461425 0.7222336 -0.15255928 
0.6873086 0.7125761 -0.1408628 
0.69833463 0.70494986 -0.12399358 
0.70823824 0.6988386 -0.10011657 
0.7160035 0.69479156 -0.06785121 
0.719954 0.69347805 -0.027466707 
0.7174274 0.69636506 0.01933299 
0.70614827 0.7046629 0.06931707 
0.6841762 0.7196454 0.11837833 
0.6507243 0.7417798 0.16223614 
0.60584414 0.7708492 0.19683588 
0.5504025 0.8056212 0.21916121 
0.48593688 0.8439769 0.22708677 
0.41416353 0.8832125 0.22001007 
0.33740366 0.92022264 0.19836603 
0.25761735 0.95226496 0.16378331 
0.1770438 0.9770438 0.1184942 
0.09692615 0.9931691 0.06496544 
0.018656138 0.9998098 0.0056938515 
-0.056903295 0.9967408 -0.057182476 
-0.12795532 0.98431426 -0.121461414 
-0.192227 0.9636576 -0.18550654 
-0.24638239 0.93703634 -0.247505 
-0.28650787 0.90807045 -0.3054855 
-0.30963635 0.8806236 -0.3586468 
-0.31467098 0.8576246 -0.40677083 
-0.30179647 0.8413438 -0.4483966 
-0.27281433 0.83195424 -0.4831403 
-0.23316433 0.8289764 -0.5083627 
-0.17983511 0.8324078 -0.52417237 
-0.14773671 0.8341584 -0.5313697 
0 0 0 
0 0 0 
0 0 0 
0 0 0 
0 0 0 
0 0 0 
0 0 0 
0 0 0 
0 0 0 
0 0 0 
0 0 0 
0.12174626 0.74901456 -0.6512719 
0.066870354 0.7766115 -0.6264207 
0.020200176 0.80837625 -0.5883195 
-0.015825322 0.8451596 -0.53427976 
-0.031481095 0.88102305 -0.47202492 
-0.02516558 0.91481 -0.4030998 
-0.00070203975 0.943339 -0.33183002 
0.037428986 0.9643055 -0.26213342 
0.08367098 0.97653323 -0.19844957 
0.13400382 0.98033786 -0.14484738 
0.18587054 0.97700566 -0.1044607 
0.23846872 0.9679703 -0.07852438 
0.29174364 0.95417 -0.06667399 
0.34597486 0.9359088 -0.06615294 
0.40100273 0.91312873 -0.07343604 
0.45594084 0.8860412 -0.083958134 
0.50913763 0.85550404 -0.09429693 
0.55848956 0.8232633 -0.1016226 
0.6020965 0.7914519 -0.1052799 
0.6386212 0.7622741 -0.10536228 
0.6679402 0.7370253 -0.10319745 
0.69071484 0.7162685 -0.099360965 
0.70868444 0.6992265 -0.09406818 
0.72342324 0.68503696 -0.08592552 
0.7365812 0.6723719 -0.07324067 
0.74840486 0.6610546 -0.05382418 
0.7584605 0.6511762 -0.026591588 
0.764729 0.6442956 0.008531318 
0.7650653 0.64202034 0.04984999 
0.756889 0.6466794 0.09447143 
0.73854 0.6598127 0.13858552 
0.7088302 0.6825331 0.17806861 
0.6675954 0.7145296 0.20919836 
0.61523473 0.7544299 0.22873987 
0.5527013 0.79964685 0.2347048 
0.48156023 0.8467686 0.22601521 
0.4035132 0.8921544 0.20307098 
0.32090008 0.932239 0.16719347 
0.23563704 0.96432453 0.12063743 
0.15004545 0.98646635 0.06611012 
0.065774485 0.9978144 0.006331384 
-0.014950467 0.99832106 -0.05596182 
-0.09002678 0.98885846 -0.118550226 
-0.15653415 0.9712357 -0.17943935 
-0.21142212 0.94816536 -0.23724073 
-0.25151083 0.92311907 -0.29084966 
-0.27448457 0.8995271 -0.33986685 
-0.2794236 0.879942 -0.38421953 
-0.26680654 0.8658343 -0.42325562 
-0.2387653 0.85711795 -0.45644283 
-0.19925183 0.8529725 -0.48242795 
-0.15248844 0.8520436 -0.50076836 
-0.10837932 0.8523848 -0.5115605 
-0.06717943 0.85533977 -0.5136933 
0 0 0 
0 0 0 
0 0 0 
0 0 0 
0 0 0 
0 0 0 
0 0 0 
0 0 0 
0 0 0 
0.2469863 0.7085115 -0.6610668 
0.17936839 0.7398261 -0.6484477 
0.11279723 0.7732683 -0.6239655 
0.0503504 0.8075963 -0.5875825 
-0.0015656038 0.84316576 -0.53765154 
-0.034933433 0.87831557 -0.47680357 
-0.046667133 0.9119818 -0.40756747 
-0.03711812 0.9418639 -0.333938 
-0.009850907 0.9655616 -0.25998816 
0.030919982 0.9812245 -0.19037493 
0.080541715 0.988306 -0.12947725 
0.13585395 0.9874394 -0.080668025 
0.19461565 0.9798008 -0.04599174 
0.25588414 0.96637964 -0.025172217 
0.31896275 0.9476214 -0.016625458 
0.38310704 0.923552 -0.016756222 
0.44691262 0.89430475 -0.022095652 
0.5083145 0.86069375 -0.028683536 
0.56497234 0.8243963 -0.03430981 
0.61466897 0.7879003 -0.037351646 
0.6562094 0.7536149 -0.038129117 
0.68928397 0.7235512 -0.03689496 
0.71506935 0.6982031 -0.03447149 
0.7350692 0.67731404 -0.030314708 
0.7515005 0.65931076 -0.023588166 
0.765594 0.64320713 -0.012266243 
0.77824897 0.6279348 0.005147728 
0.7885614 0.6142291 0.029895946 
0.7952178 0.6031855 0.061611 
0.7957535 0.59750086 0.098839164 
0.78829396 0.5994549 0.13873191 
0.77092165 0.6116068 0.17781134 
0.7427827 0.63496166 0.21236214 
0.7032811 0.6696026 0.23880567 
0.6525839 0.7137627 0.25431713 
0.59124804 0.76454437 0.25670522 
0.5203488 0.8180179 0.24512039 
0.44166857 0.8698768 0.21964358 
0.3571613 0.91620225 0.18168476 
0.26945257 0.95372474 0.13343313 
0.18078494 0.98045206 0.0776578 
0.09390435 0.9954295 0.017384524 
0.011113961 0.99894136 -0.044639833 
-0.064684786 0.9922731 -0.1058777 
-0.13078125 0.9776601 -0.16455129 
-0.1841602 0.9580955 -0.2194039 
-0.22229661 0.93688416 -0.26987475 
-0.24336936 0.9170179 -0.31599015 
-0.24680436 0.9006069 -0.3577638 
-0.23340194 0.8884582 -0.3951781 
-0.2055187 0.8803599 -0.42746758 
-0.16690128 0.87524265 -0.45397612 
-0.12236296 0.8720315 -0.4739075 
-0.077564985 0.8695569 -0.48770335 
-0.036224056 0.8676744 -0.49581152 
-0.004648105 0.86685205 -0.498544 
0 0 0 
0 0 0 
0 0 0 
0 0 0 
0 0 0 
0 0 0 
0 0 0 
0.34781188 0.670413 -0.65541846 
0.29308167 0.69940764 -0.65186816 
0.22690119 0.7334795 -0.6407213 
0.1534556 0.7687612 -0.6208523 
0.07932638 0.8043452 -0.588843 
0.01349216 0.83977145 -0.5427724 
-0.036340795 0.8747009 -0.48329875 
-0.06459841 0.90821695 -0.4134841 
-0.07039019 0.93882954 -0.33711174 
-0.054885663 0.96432877 -0.25895515 
-0.02200495 0.9827425 -0.18366562 
0.024470802 0.9929663 -0.11584127 
0.08045022 0.9949973 -0.059229977 
0.14328845 0.989553 -0.01592238 
0.21081614 0.97743404 0.013386173 
0.28169248 0.9590249 0.030342555 
0.3543217 0.9343812 0.037254125 
0.42672992 0.90358245 0.037951764 
0.49637017 0.8673909 0.035353504 
0.5603732 0.82759994 0.032560807 
0.61644006 0.78680277 0.030707687 
0.6629706 0.7480129 0.030769646 
0.70005864 0.71335596 0.032268472 
0.7285263 0.68409634 0.035520557 
0.7505523 0.6595665 0.040538613 
0.7678417 0.63878715 0.04868362 
0.7823605 0.619829 0.061026473 
0.7943882 0.6022358 0.07911815 
0.8038418 0.5858101 0.10327063 
0.80893475 0.5726146 0.13318042 
0.80815375 0.5647944 0.16701743 
0.799343 0.5657936 0.20230798 
0.78136414 0.57778955 0.23585853 
0.7529606 0.6026041 0.26442134 
0.71375406 0.6398044 0.2849659 
0.6633682 0.6877647 0.2948261 
0.602161 0.74296016 0.29225388 
0.5310028 0.8010749 0.27625194 
0.4514582 0.8573777 0.24716167 
0.3659061 0.9075112 0.20624316 
0.2768666 0.94819903 0.15576735 
0.18742082 0.9773239 0.09854647 
0.100215316 0.9942581 0.037521362 
0.018321488 0.99953437 -0.024400083 
-0.055648427 0.9948323 -0.08492404 
-0.118735485 0.982678 -0.14228864 
-0.16848786 0.96610636 -0.19557744 
-0.20266856 0.9482043 -0.24461028 
-0.22004306 0.9315322 -0.2895322 
-0.22035402 0.9176015 -0.33083457 
-0.20485368 0.9068791 -0.3682462 
-0.17607334 0.89877594 -0.4014973 
-0.13812764 0.89248604 -0.42940602 
-0.09573606 0.8870594 -0.45161957 
-0.054279897 0.88205975 -0.46800032 
-0.017988462 0.8771341 -0.47990865 
0.0088497065 0.87228686 -0.48891452 
0.021562155 0.8678346 -0.4963851 
0 0 0 
0 0 0 
0 0 0 
0 0 0 
0 0 0 
0.38590527 0.65225595 -0.6524105 
0.36166212 0.6703256 -0.6479693 
0.31767392 0.69743425 -0.642393 
0.25600204 0.7293074 -0.63448703 
0.18132056 0.76394606 -0.6192813 
0.10169739 0.79961264 -0.5918423 
0.025890928 0.8355555 -0.5487959 
-0.036490005 0.8706438 -0.49055868 
-0.07947651 0.9042158 -0.41961563 
-0.09928239 0.9349233 -0.34067792 
-0.0965053 0.96118873 -0.2584628 
-0.07292095 0.98129314 -0.17817499 
-0.03250921 0.99401325 -0.10431206 
0.021434039 0.99894583 -0.040593993 
0.08531371 0.9962997 0.0104200905 
0.15678239 0.98645747 0.048177835 
0.23345481 0.9696119 0.07315644 
0.3132184 0.9456027 0.087918624 
0.3933725 0.9144646 0.094934985 
0.4707235 0.8768447 0.09778924 
0.54205626 0.83453256 0.09864262 
0.6043902 0.79040384 0.0998717 
0.65628177 0.74758387 0.10204245 
0.69721836 0.7089625 0.10610729 
0.72864085 0.6756872 0.111934744 
0.75207925 0.6479749 0.12043771 
0.77006847 0.6241603 0.13197985 
0.78382206 0.6031457 0.1477782 
0.794588 0.58342004 0.16808012 
0.8016425 0.5657594 0.19309509 
0.80436486 0.55124724 0.22163856 
0.800832 0.5432146 0.25216258 
0.7900101 0.5442964 0.28217977 
0.77028835 0.5577242 0.309192 
0.7410302 0.5845024 0.33050165 
0.7011447 0.6247452 0.34364176 
0.650377 0.6759708 0.34651598 
0.58855635 0.7346286 0.3375236 
0.5165964 0.7957606 0.3160593 
0.43617606 0.85440207 0.28239608 
0.34978348 0.9061032 0.23796746 
0.26055995 0.9475722 0.18497433 
0.17154545 0.97707075 0.1261148 
0.086061224 0.9942125 0.06430461 
0.0068456377 0.9999743 0.0021162943 
-0.063107364 0.99630624 -0.058236267 
-0.12142991 0.9858744 -0.11535388 
-0.1656797 0.9716594 -0.16860677 
-0.1943133 0.95642036 -0.21795078 
-0.206284 0.9422093 -0.26398632 
-0.20198865 0.93007755 -0.30684927 
-0.18284442 0.91995895 -0.3467616 
-0.15211914 0.91128236 -0.38265416 
-0.11396372 0.9032036 -0.41380617 
-0.07387635 0.8954861 -0.4389158 
-0.03684961 0.8880414 -0.45828453 
-0.00763403 0.8811626 -0.47275177 
0.010864365 0.8745122 -0.48488197 
0.016657561 0.86751974 -0.4971238 
0.008114031 0.8596452 -0.51082706 
0 0 0 
0 0 0 
0 0 0 
0.35619274 0.6596453 -0.66181177 
0.3628081 0.66571134 -0.6520726 
0.35057852 0.68039995 -0.64354545 
0.31723973 0.7016378 -0.63801515 
0.26335177 0.72884446 -0.632006 
0.19330502 0.76060444 -0.61976945 
0.113451675 0.79569936 -0.59497166 
0.033555035 0.83182925 -0.5540164 
-0.03761176 0.86746603 -0.4960725 
-0.09151725 0.9009102 -0.424247 
-0.12412326 0.93115574 -0.34284478 
-0.13317125 0.9570373 -0.2575752 
-0.12033063 0.97748625 -0.17332399 
-0.08761214 0.99163824 -0.09475101 
-0.038769502 0.9989255 -0.025394956 
0.023425989 0.9991976 0.032488365 
0.095738605 0.99237114 0.07767739 
0.1757477 0.978163 0.11095051 
0.26049635 0.95620096 0.1334968 
0.34678763 0.9261558 0.14823584 
0.430899 0.888571 0.1573777 
0.5088175 0.8451043 0.16402312 
0.57743937 0.79860055 0.16970909 
0.6343861 0.7526166 0.17641598 
0.679539 0.7100382 0.1845878 
0.7134099 0.67297214 0.19533268 
0.7383591 0.64130574 0.20869315 
0.75599235 0.61451876 0.22548254 
0.76864827 0.5906857 0.24550003 
0.77677876 0.5694908 0.26887724 
0.7810857 0.550599 0.2945268 
0.78040636 0.5363497 0.32139534 
0.7742919 0.5288719 0.34751487 
0.7611039 0.5319391 0.37116256 
0.74021345 0.5475321 0.39024693 
0.7100288 0.57745963 0.40298834 
0.6698658 0.62064326 0.40753153 
0.6185365 0.67495525 0.40230352 
0.5561502 0.73591834 0.38616216 
0.4833052 0.79862285 0.35863316 
0.40208182 0.8577815 0.32022062 
0.31531414 0.9090813 0.2723018 
0.22638337 0.94956565 0.21696913 
0.13888659 0.9778189 0.15678255 
0.055948447 0.99397767 0.09422449 
-0.019259129 0.99931216 0.03169 
-0.08431044 0.9960146 -0.029101085 
-0.13662617 0.9867938 -0.08701373 
-0.17451161 0.97441465 -0.14164005 
-0.19635826 0.9612817 -0.19334164 
-0.2019149 0.9489343 -0.24239261 
-0.19154356 0.93785167 -0.28938818 
-0.16759911 0.92769116 -0.33361605 
-0.13334352 0.9176155 -0.3744348 
-0.094099335 0.9072749 -0.40987524 
-0.055177048 0.8967409 -0.43910298 
-0.022521723 0.8869373 -0.46134064 
-9.762603e-07 0.87834585 -0.4780258 
0.0096995765 0.8709884 -0.49120793 
0.0069195316 0.86351633 -0.5042735 
-0.0067296843 0.8543855 -0.5195963 
-0.029555473 0.84284073 -0.537351 
0 0 0 
0 0 0 
0.3034599 0.6837505 -0.66362447 
0.31570163 0.6882939 -0.6531341 
0.3143984 0.69735324 -0.64409024 
0.2927927 0.7120284 -0.6381913 
0.25017816 0.733193 -0.6323282 
0.18840675 0.7613825 -0.6203223 
0.113843665 0.7946726 -0.59626764 
0.03408141 0.83079016 -0.5555415 
-0.04059013 0.86640465 -0.49769017 
-0.10242148 0.89946914 -0.42481196 
-0.14448866 0.9284598 -0.34217775 
-0.16460279 0.95284927 -0.25492036 
-0.16175054 0.9723338 -0.16853444 
-0.13821109 0.9865702 -0.0870462 
-0.095933706 0.99529326 -0.013719585 
-0.038289815 0.99805117 0.04927341 
0.032294232 0.99434197 0.101198606 
0.11264132 0.9834545 0.14187747 
0.19980994 0.96445775 0.17290829 
0.29003805 0.936796 0.1956815 
0.3790449 0.90053034 0.21300262 
0.4625666 0.85712844 0.22663438 
0.53644896 0.80933166 0.2391755 
0.59843814 0.7605824 0.2517661 
0.6471284 0.71442467 0.26612443 
0.68367827 0.6728591 0.2825682 
0.70921427 0.63706774 0.30192688 
0.7265185 0.60610217 0.3237455 
0.7369238 0.5795683 0.3479136 
0.74254364 0.5562432 0.37312526 
0.7433999 0.5372724 0.39836535 
0.74019134 0.5236328 0.42181212 
0.7317515 0.5186515 0.4421996 
0.7178226 0.5244157 0.45795086 
0.69656825 0.54378635 0.46806967 
0.6670819 0.57694083 0.47131845 
0.6272875 0.6234469 0.46671662 
0.57646793 0.6799423 0.45317012 
0.51385534 0.7423538 0.4299576 
0.4406872 0.80517554 0.39684665 
0.3589529 0.86345375 0.35440156 
0.27208915 0.9130321 0.30387467 
0.1838339 0.95136756 0.24719395 
0.09792599 0.9775837 0.18638876 
0.017911218 0.9921589 0.12369343 
-0.053427614 0.9967174 0.06082745 
-0.11330453 0.9935601 -0.000744506 
-0.15985392 0.9852974 -0.06029794 
-0.19105352 0.9744918 -0.11774739 
-0.20615089 0.9630579 -0.1732672 
-0.20454875 0.9520454 -0.22752899 
-0.18763165 0.94142807 -0.28019235 
-0.1574665 0.93042475 -0.33092937 
-0.118706435 0.9183156 -0.37763104 
-0.07644779 0.90486723 -0.41877353 
-0.037530255 0.89116055 -0.4521333 
-0.0072332243 0.8785383 -0.4776171 
0.009778315 0.8684267 -0.4957213 
0.012566716 0.86054444 -0.5092205 
0.0024260818 0.85357255 -0.52096844 
-0.015261697 0.8454391 -0.5338537 
-0.031993773 0.8367716 -0.5466166 
0 0 0 
0.17133296 0.70722413 -0.68591475 
0.21827845 0.70927715 -0.670284 
0.24673684 0.7134154 -0.65586555 
0.2580977 0.7186302 -0.6457216 
0.24978918 0.7275812 -0.6389296 
0.2196311 0.7436397 -0.6314762 
0.16937906 0.7676461 -0.618086 
0.10269708 0.7989151 -0.59261125 
0.027778769 0.8338112 -0.5513504 
-0.047151867 0.86883736 -0.49284714 
-0.112220064 0.90055734 -0.42000386 
-0.16129203 0.9275656 -0.33705646 
-0.18932506 0.949563 -0.24997218 
-0.19573735 0.9669652 -0.16329516 
-0.1804124 0.98024076 -0.081115104 
-0.14584264 0.9892898 -0.0059631052 
-0.09381051 0.9937474 0.060545407 
-0.027384868 0.99270093 0.11745226 
0.050983492 0.9849542 0.1651244 
0.13783391 0.9692374 0.2039138 
0.2293996 0.94437414 0.23565531 
0.3212015 0.91017544 0.26155382 
0.4082553 0.8675699 0.2839895 
0.48646003 0.8190172 0.30424917 
0.5521748 0.76802737 0.32440266 
0.60439515 0.7180076 0.34521252 
0.6426888 0.672026 0.3678753 
0.66921216 0.63115865 0.39216566 
0.68541765 0.5962005 0.41802838 
0.6943686 0.5662503 0.44408655 
0.6972667 0.54188126 0.46923766 
0.69628125 0.52300984 0.49158236 
0.6912739 0.51195943 0.50993913 
0.68289346 0.51010615 0.52292293 
0.6695102 0.52040225 0.5300355 
0.65032625 0.5436112 0.5306248 
0.6226533 0.5806762 0.52451694 
0.5850976 0.6295866 0.5111572 
0.53547263 0.68774647 0.49017748 
0.47382134 0.7502532 0.46110037 
0.40067413 0.8122272 0.4239662 
0.3189158 0.8686293 0.37917784 
0.2319522 0.91580147 0.32788086 
0.14409271 0.9516283 0.27136877 
0.059378337 0.9755939 0.2114022 
-0.018670755 0.9886098 0.14933944 
-0.08684965 0.9924451 0.08666045 
-0.1429082 0.9894412 0.024154436 
-0.18446504 0.98211724 -0.037662096 
-0.21032305 0.9726297 -0.09877042 
-0.21907876 0.96256316 -0.15961465 
-0.21114887 0.9523528 -0.22009143 
-0.18721661 0.941519 -0.28016427 
-0.15074386 0.9290087 -0.33796304 
-0.10585315 0.9139709 -0.3917298 
-0.059494868 0.8968764 -0.43826166 
-0.017943678 0.8792298 -0.47606 
0.011888649 0.86367 -0.5039177 
0.026544306 0.85170114 -0.5233551 
0.024462834 0.84356004 -0.53647745 
0.008846256 0.8369483 -0.54721045 
-0.01485577 0.82887995 -0.5592293 
-0.039193396 0.8159469 -0.5767968 
-0.064495474 0.79402107 -0.6044591 
0.12015201 0.72930944 -0.6735513 
0.14600195 0.73470557 -0.6624886 
0.17388612 0.73906755 -0.65080166 
0.1930831 0.7421572 -0.64181125 
0.19575317 0.74786144 -0.6343373 
0.17830205 0.75979835 -0.62523186 
0.1394653 0.7805656 -0.60931665 
0.083081715 0.8089256 -0.5820111 
0.014637544 0.8419809 -0.53930885 
-0.056407273 0.87493736 -0.4809397 
-0.12201522 0.9044825 -0.40868556 
-0.1736886 0.9287022 -0.3276349 
-0.2073364 0.94775677 -0.24242303 
-0.21981019 0.9626668 -0.15797538 
-0.2117215 0.97427726 -0.077187166 
-0.18351832 0.98301375 -0.002261162 
-0.13768193 0.98829615 0.065684564 
-0.07596364 0.98907876 0.12630482 
-0.0013703477 0.9837875 0.17933321 
0.083236404 0.97065556 0.22560903 
0.1739151 0.94829047 0.26551598 
0.2660859 0.9158723 0.30062675 
0.35494882 0.8740543 0.33172354 
0.43542817 0.824868 0.36054838 
0.5042445 0.77155036 0.3878758 
0.5587251 0.7180084 0.4150785 
0.59923065 0.66727513 0.44234204 
0.62624407 0.62203354 0.46999234 
0.6427774 0.5829329 0.49701756 
0.65062237 0.55108124 0.52249414 
0.6531499 0.5261409 0.5445833 
0.6514539 0.50959444 0.5620688 
0.6475092 0.5018032 0.57352024 
0.6404983 0.5050337 0.5785352 
0.63025993 0.5197789 0.5767169 
0.614025 0.5475556 0.5684683 
0.5901142 0.5873468 0.55388546 
0.5552353 0.6381675 0.53334415 
0.5082101 0.6963999 0.5067047 
0.44773844 0.7581707 0.4740332 
0.3754178 0.8183302 0.43519813 
0.29349142 0.8725042 0.39063984 
0.20627105 0.9172361 0.34077907 
0.11804323 0.9507282 0.2866735 
0.033277072 0.97285366 0.22901618 
-0.04414808 0.984634 0.16895837 
-0.1112227 0.9880181 0.1070035 
-0.16510607 0.98530036 0.04385401 
-0.20409566 0.9787386 -0.020391917 
-0.22615354 0.9703063 -0.08579308 
-0.230818 0.9609993 -0.15232693 
-0.21743126 0.9509472 -0.22005282 
-0.18792091 0.939155 -0.28753045 
-0.14471333 0.9243208 -0.35311353 
-0.09375438 0.90582067 -0.41315746 
-0.04120965 0.8843351 -0.46503043 
0.004520895 0.86260355 -0.50586045 
0.037488513 0.84359396 -0.5356714 
0.052615844 0.82997054 -0.5553202 
0.04974871 0.821461 -0.56809044 
0.0313025 0.81595993 -0.5772604 
0.0042227297 0.8095654 -0.5870147 
-0.02365109 0.799692 -0.5999446 
-0.04398062 0.78750914 -0.6147318 
0.05590977 0.75299704 -0.6556445 
0.07594319 0.7594426 -0.64612675 
0.10389297 0.7642431 -0.6365051 
0.12807244 0.7671867 -0.6285079 
0.1397056 0.7713297 -0.6209129 
0.1323104 0.78120095 -0.6100975 
0.104526564 0.79894185 -0.5922552 
0.057490572 0.82454103 -0.5628739 
-0.002488695 0.8543509 -0.5196907 
-0.06840315 0.8843294 -0.46182534 
-0.13062027 0.9105572 -0.39220423 
-0.18238792 0.93159324 -0.31443405 
-0.21739464 0.9477009 -0.23367192 
-0.23360519 0.9601817 -0.1532309 
-0.22946133 0.9703466 -0.075993575 
-0.20628911 0.9784862 -0.0031044194 
-0.16492258 0.98417866 0.06475299 
-0.107826844 0.9859906 0.12726328 
-0.03698409 0.9821066 0.18465891 
0.04440702 0.97054774 0.23678093 
0.13285302 0.9494754 0.28433508 
0.22397815 0.91797024 0.32735977 
0.3127014 0.8761698 0.36680287 
0.39446616 0.82587993 0.4028882 
0.46477488 0.7703071 0.43659067 
0.52166885 0.71324265 0.46813107 
0.5637705 0.6588341 0.49809688 
0.59282905 0.6097628 0.5260638 
0.6102408 0.5686094 0.5516245 
0.61970115 0.53589165 0.57340276 
0.62314266 0.513001 0.5903586 
0.6237503 0.49964398 0.6010753 
0.6218824 0.497169 0.60504985 
0.61850464 0.50523084 0.60182554 
0.611488 0.5250316 0.59196645 
0.59950274 0.55577266 0.57594556 
0.5788533 0.5975652 0.5548376 
0.5475829 0.64818656 0.5291571 
0.50277644 0.70546174 0.49953952 
0.44436097 0.7651739 0.4658888 
0.3726366 0.8232007 0.4283488 
0.2908769 0.8751751 0.38659957 
0.20277643 0.91795945 0.3409284 
0.113382205 0.9499264 0.2911776 
0.02724623 0.97091323 0.23787661 
-0.051521584 0.9821484 0.18091446 
-0.11938473 0.9854708 0.12080817 
-0.17390174 0.98308665 0.057436276 
-0.21249227 0.97712165 -0.008970348 
-0.23393159 0.9690846 -0.0784294 
-0.23649387 0.959851 -0.1508535 
-0.22057836 0.9490067 -0.22523676 
-0.18660453 0.93543893 -0.30022126 
-0.13850498 0.9177134 -0.37231493 
-0.08090535 0.89522064 -0.4382174 
-0.022108767 0.8694231 -0.4935734 
0.030540945 0.8432772 -0.5366105 
0.06887925 0.821102 -0.5666102 
0.08896206 0.8053778 -0.58604807 
0.08886869 0.79670566 -0.5977981 
0.072120465 0.79213804 -0.6060661 
0.044779617 0.7880235 -0.6140145 
0.01654884 0.7812597 -0.6239867 
-0.0024499127 0.7731399 -0.63423085 
-0.0024548785 0.77314126 -0.63422906 
0.016544262 0.7812608 -0.6239854 
0.04477496 0.78802514 -0.6140127 
0.072116196 0.79213905 -0.6060653 
0.088863105 0.79670674 -0.5977974 
0.08895685 0.80537915 -0.5860472 
0.06887469 0.82110316 -0.56660914 
0.030536687 0.8432782 -0.5366092 
-0.022112131 0.8694236 -0.4935723 
-0.080907926 0.89522105 -0.43821606 
-0.13850741 0.91771364 -0.3723135 
-0.18660617 0.93543905 -0.30021977 
-0.22057995 0.94900656 -0.22523573 
-0.23649488 0.95985085 -0.15085262 
-0.23393281 0.9690843 -0.07842862 
-0.21249256 0.9771216 -0.008969843 
-0.17390196 0.9830865 0.057436686 
-0.1193852 0.9854708 0.120807864 