# OOMMF OVF 2.0
# Segment count: 1
# Begin: Segment
# Begin: Header
# Title: m
# meshtype: rectangular
# meshunit: m
# xmin: 0
# ymin: 0
# zmin: 0
# xmax: 1.6e-07
# ymax: 8e-08
# zmax: 5e-09
# valuedim: 3
# valuelabels: m_x m_y m_z
# valueunits: 1 1 1
# Desc: Total simulation time:  8.001284365117086e-10  s
# xbase: 1.25e-09
# ybase: 1.25e-09
# zbase: 2.5e-09
# xnodes: 64
# ynodes: 32
# znodes: 1
# xstepsize: 2.5e-09
# ystepsize: 2.5e-09
# zstepsize: 5e-09
# End: Header
# Begin: Data Text
0 0 0 
0 0 0 
0 0 0 
0 0 0 
0 0 0 
0 0 0 
0 0 0 
0 0 0 
0 0 0 
0 0 0 
0 0 0 
0 0 0 
0 0 0 
0 0 0 
0 0 0 
0 0 0 
0 0 0 
0 0 0 
0 0 0 
0 0 0 
0 0 0 
0 0 0 
0 0 0 
0 0 0 
-0.9282675 0.00040920026 -0.3719132 
-0.92156947 0.0029713747 -0.38820222 
-0.9115263 0.0021425516 -0.41123632 
-0.90092266 -0.0048562544 -0.43395263 
-0.891846 -0.019428225 -0.4519217 
-0.8859999 -0.04191777 -0.46178675 
-0.88431734 -0.07159374 -0.46136466 
-0.88702244 -0.10683502 -0.44919664 
-0.8934348 -0.14523336 -0.42506668 
-0.9023653 -0.1840578 -0.3896918 
-0.912225 -0.2206417 -0.34519985 
-0.9215056 -0.25298828 -0.2946599 
-0.92892253 -0.2800211 -0.24226262 
-0.93372023 -0.30174264 -0.19266015 
-0.9356736 -0.3187918 -0.1512833 
-0.9351825 -0.3314086 -0.12490821 
0 0 0 
0 0 0 
0 0 0 
0 0 0 
0 0 0 
0 0 0 
0 0 0 
0 0 0 
0 0 0 
0 0 0 
0 0 0 
0 0 0 
0 0 0 
0 0 0 
0 0 0 
0 0 0 
0 0 0 
0 0 0 
0 0 0 
0 0 0 
0 0 0 
0 0 0 
0 0 0 
0 0 0 
0 0 0 
0 0 0 
0 0 0 
0 0 0 
0 0 0 
0 0 0 
0 0 0 
0 0 0 
0 0 0 
0 0 0 
0 0 0 
0 0 0 
0 0 0 
0 0 0 
0 0 0 
0 0 0 
0 0 0 
0 0 0 
-0.9804926 -0.15580747 -0.11982659 
-0.98227865 -0.13857646 -0.12619512 
-0.98336154 -0.11368504 -0.14168975 
-0.98240083 -0.083526865 -0.16706865 
-0.97789884 -0.05030814 -0.20293581 
-0.9678175 -0.017719612 -0.25102863 
-0.94866556 0.0028458096 -0.31626824 
-0.93535745 0.0093461145 -0.3535805 
-0.9238265 0.009604067 -0.38269088 
-0.91347986 0.0030396623 -0.4068726 
-0.90534794 -0.011358516 -0.42451862 
-0.90033627 -0.03372022 -0.43388653 
-0.89921904 -0.06335353 -0.4328875 
-0.90180117 -0.09852298 -0.42077082 
-0.9075203 -0.13689706 -0.397072 
-0.91508144 -0.17561777 -0.36302137 
-0.923252 -0.21208653 -0.32035148 
-0.93069255 -0.24418193 -0.27237245 
-0.93655527 -0.27087715 -0.2224629 
-0.94036245 -0.29190785 -0.17466614 
-0.94243807 -0.30737278 -0.1316532 
-0.9444281 -0.3151456 -0.09348197 
-0.9515607 -0.30353177 -0.04899825 
-0.9554668 -0.29431584 -0.021479813 
-0.95697325 -0.29010066 -0.006619138 
-0.95772916 -0.2876654 -0.0019062342 
-0.9586294 -0.28462332 -0.0044022314 
-0.9595263 -0.28145003 -0.009758148 
0 0 0 
0 0 0 
0 0 0 
0 0 0 
0 0 0 
0 0 0 
0 0 0 
0 0 0 
0 0 0 
0 0 0 
0 0 0 
0 0 0 
0 0 0 
0 0 0 
0 0 0 
0 0 0 
0 0 0 
0 0 0 
0 0 0 
0 0 0 
0 0 0 
0 0 0 
0 0 0 
0 0 0 
0 0 0 
0 0 0 
0 0 0 
0 0 0 
0 0 0 
0 0 0 
0 0 0 
0 0 0 
0 0 0 
-0.96915084 -0.2210691 -0.108973525 
-0.9754302 -0.19735824 -0.09790698 
-0.98118484 -0.17000543 -0.091512404 
-0.98357135 -0.1510065 -0.09891628 
-0.9853864 -0.13203554 -0.10761183 
-0.9866011 -0.10649139 -0.12360374 
-0.98600656 -0.07598214 -0.148384 
-0.9823108 -0.0433058 -0.18218143 
-0.9745093 -0.012694103 -0.22398765 
-0.96257615 0.009415442 -0.27084792 
-0.95097214 0.020719133 -0.3085821 
-0.94048756 0.023529045 -0.3390125 
-0.93180335 0.018230105 -0.36250558 
-0.925426 0.004716516 -0.37889892 
-0.92216486 -0.016915046 -0.3864271 
-0.92200017 -0.045683697 -0.3844851 
-0.92481154 -0.08001225 -0.37191638 
-0.9295916 -0.117422126 -0.34938744 
-0.9354756 -0.15526624 -0.3174552 
-0.9412636 -0.19077648 -0.2786164 
-0.9462721 -0.22199443 -0.23513317 
-0.94991964 -0.24763617 -0.19060212 
-0.9522113 -0.2674504 -0.14752594 
-0.95351815 -0.28114474 -0.10844804 
-0.954902 -0.28768596 -0.073478244 
-0.957565 -0.28513017 -0.042071566 
-0.95947874 -0.28105295 -0.020245451 
-0.9604753 -0.27823308 -0.00858003 
-0.9614621 -0.27487502 -0.005868815 
-0.9635996 -0.2671363 -0.010678052 
-0.968451 -0.24827051 -0.021553135 
-0.97973865 -0.19619347 -0.040253893 
-0.98757905 -0.1476483 -0.05373611 
-0.99154735 -0.11482763 -0.060403906 
0 0 0 
0 0 0 
0 0 0 
0 0 0 
0 0 0 
0 0 0 
0 0 0 
0 0 0 
0 0 0 
0 0 0 
0 0 0 
0 0 0 
0 0 0 
0 0 0 
0 0 0 
0 0 0 
0 0 0 
0 0 0 
0 0 0 
0 0 0 
0 0 0 
0 0 0 
0 0 0 
0 0 0 
0 0 0 
0 0 0 
0 0 0 
-0.9138998 -0.36932307 -0.168487 
-0.9324011 -0.32812604 -0.15153071 
-0.9520401 -0.27847752 -0.12676772 
-0.96657574 -0.23494108 -0.10263608 
-0.9755715 -0.20334324 -0.08313739 
-0.98223877 -0.17355096 -0.07132395 
-0.98657626 -0.1474915 -0.07009721 
-0.9895695 -0.1217365 -0.07702311 
-0.99137944 -0.09267814 -0.09261592 
-0.9912871 -0.06063067 -0.116934836 
-0.98850673 -0.027861718 -0.14858718 
-0.9826009 0.0020629175 -0.18571799 
-0.9742252 0.025099015 -0.22417693 
-0.9652258 0.039085813 -0.25847912 
-0.9571624 0.044057235 -0.2861803 
-0.9507834 0.040328648 -0.3072209 
-0.94691753 0.028047122 -0.32025093 
-0.9455807 0.0078041987 -0.32529417 
-0.94683963 -0.01949957 -0.32111478 
-0.9498441 -0.052081835 -0.30835664 
-0.95395255 -0.0877889 -0.2868234 
-0.9580532 -0.12384702 -0.2584495 
-0.96162105 -0.15780462 -0.22446123 
-0.96412414 -0.18748324 -0.18792252 
-0.9656146 -0.21182942 -0.15072127 
-0.9662038 -0.23032995 -0.1157514 
-0.9663275 -0.24320254 -0.0840461 
-0.96646696 -0.2503861 -0.056995563 
-0.9669504 -0.2525925 -0.034698248 
-0.96737206 -0.252599 -0.01962774 
-0.9677494 -0.25162944 -0.011988115 
-0.9687427 -0.24779567 -0.0116161965 
-0.97126675 -0.23736574 -0.017275793 
-0.9762597 -0.21484095 -0.027577968 
-0.9837646 -0.17488535 -0.040279496 
-0.99044794 -0.1288344 -0.049138594 
-0.9954253 -0.08148492 -0.049888447 
-0.99917924 -0.015058594 -0.037606232 
-0.999049 0.03697094 -0.023112869 
-0.9978255 0.06508268 -0.010417073 
0 0 0 
0 0 0 
0 0 0 
0 0 0 
0 0 0 
0 0 0 
0 0 0 
0 0 0 
0 0 0 
0 0 0 
0 0 0 
0 0 0 
0 0 0 
0 0 0 
0 0 0 
0 0 0 
0 0 0 
0 0 0 
0 0 0 
0 0 0 
0 0 0 
0 0 0 
-0.8432429 -0.51767004 -0.1447729 
-0.87231654 -0.46623436 -0.14727399 
-0.9040295 -0.40107384 -0.14788747 
-0.92865205 -0.3469836 -0.13117859 
-0.94968146 -0.29497868 -0.105322056 
-0.9654349 -0.24887832 -0.07742875 
-0.9763328 -0.20962425 -0.053215615 
-0.9841105 -0.17365795 -0.03700637 
-0.9896325 -0.14011016 -0.031571805 
-0.9935586 -0.10717617 -0.03680712 
-0.995939 -0.07325918 -0.05233169 
-0.99632615 -0.03852882 -0.07648458 
-0.994219 -0.004768721 -0.10726557 
-0.98964536 0.025353992 -0.1412771 
-0.9832761 0.048986763 -0.175409 
-0.9765914 0.06426859 -0.2052777 
-0.9707684 0.070650816 -0.2293844 
-0.96690077 0.06814667 -0.24588433 
-0.9652129 0.057222128 -0.2551268 
-0.9658917 0.038465988 -0.2560734 
-0.9682137 0.013091108 -0.24978198 
-0.9716288 -0.017413098 -0.23586945 
-0.975031 -0.050786067 -0.21618359 
-0.97788036 -0.08468569 -0.19125503 
-0.9795975 -0.11653579 -0.16373184 
-0.9802815 -0.14452282 -0.13476431 
-0.98006785 -0.16734184 -0.10706862 
-0.97938293 -0.18487541 -0.081425816 
-0.9785279 -0.1973092 -0.059600733 
-0.9777724 -0.2055327 -0.041444324 
-0.9772231 -0.21036941 -0.027926175 
-0.976815 -0.21322948 -0.01912694 
-0.9767243 -0.2139262 -0.015661528 
-0.9774039 -0.21070549 -0.01688115 
-0.9795101 -0.20016812 -0.022194684 
-0.98340195 -0.17894974 -0.029960474 
-0.9886575 -0.14535083 -0.03781005 
-0.99372435 -0.10373005 -0.041859053 
-0.9976006 -0.057280775 -0.038884442 
-0.99960685 -0.006524289 -0.027268335 
-0.9993652 0.034243204 -0.009829396 
-0.9984295 0.05453533 0.012827917 
-0.99733794 0.056271046 0.046374734 
-0.9962094 0.054058876 0.068151146 
0 0 0 
0 0 0 
0 0 0 
0 0 0 
0 0 0 
0 0 0 
0 0 0 
0 0 0 
0 0 0 
0 0 0 
0 0 0 
0 0 0 
0 0 0 
0 0 0 
0 0 0 
0 0 0 
0 0 0 
0 0 0 
-0.7548303 -0.6536061 -0.055047102 
-0.7884911 -0.61020267 -0.07703594 
-0.82885855 -0.54876745 -0.10884746 
-0.86437917 -0.48875776 -0.11817194 
-0.89741033 -0.42619267 -0.11408151 
-0.9251175 -0.3673495 -0.095979474 
-0.94770443 -0.31168348 -0.06862852 
-0.96474534 -0.26038048 -0.038319584 
-0.9768584 -0.21359245 -0.0112284925 
-0.9854199 -0.16997328 0.007534821 
-0.9915781 -0.12864728 0.014927618 
-0.9960062 -0.088715956 0.010056846 
-0.99875194 -0.049591098 -0.005949497 
-0.99944955 -0.011695097 -0.031047883 
-0.99781626 0.023616701 -0.06168522 
-0.99402845 0.054291796 -0.09465708 
-0.98896694 0.07828322 -0.12576288 
-0.98380584 0.09411592 -0.15253979 
-0.97985536 0.1011476 -0.17219952 
-0.9777457 0.099478476 -0.18470895 
-0.977891 0.08952524 -0.18898265 
-0.97980565 0.07220059 -0.18646209 
-0.98302394 0.048556052 -0.17693615 
-0.9864839 0.020259641 -0.16260123 
-0.9895441 -0.010826686 -0.14382379 
-0.9914762 -0.042312697 -0.123226814 
-0.9922232 -0.072076954 -0.101479165 
-0.9918595 -0.09815077 -0.08112453 
-0.99085 -0.119627096 -0.06249725 
-0.9895593 -0.13613598 -0.04732369 
-0.98830384 -0.14840898 -0.035075534 
-0.9872144 -0.15718585 -0.026465638 
-0.9862998 -0.1636764 -0.020560624 
-0.98558193 -0.16825916 -0.017811965 
-0.9851809 -0.17062129 -0.01752545 
-0.98546565 -0.16872266 -0.01975541 
-0.9868149 -0.16012225 -0.023606021 
-0.9894294 -0.14226861 -0.02809187 
-0.9929037 -0.11473963 -0.031257123 
-0.9963625 -0.07952515 -0.030621069 
-0.9989004 -0.040227 -0.024079747 
-0.99994254 -0.001004235 -0.010678625 
-0.99954045 0.029075008 0.008574296 
-0.9985465 0.04281549 0.032736946 
-0.9974292 0.037705842 0.060936857 
-0.99609137 0.012931813 0.08737694 
-0.99249417 -0.03911857 0.11586695 
-0.98833686 -0.075048864 0.13250695 
0 0 0 
0 0 0 
0 0 0 
0 0 0 
0 0 0 
0 0 0 
0 0 0 
0 0 0 
0 0 0 
0 0 0 
0 0 0 
0 0 0 
0 0 0 
0 0 0 
-0.68922704 -0.7216402 0.064819574 
-0.71501374 -0.6982615 0.034441587 
-0.74653864 -0.66517925 -0.014718648 
-0.7826856 -0.62068486 -0.046406254 
-0.8218302 -0.56548405 -0.06944812 
-0.8590824 -0.5059842 -0.07718518 
-0.8931415 -0.44423476 -0.070383176 
-0.92224234 -0.38329405 -0.05054573 
-0.94574314 -0.32418564 -0.021765057 
-0.96346354 -0.26765278 0.0100093065 
-0.9760948 -0.21392041 0.03843251 
-0.98494446 -0.16280083 0.058140796 
-0.9912968 -0.114115745 0.06563717 
-0.995892 -0.067760155 0.06006468 
-0.99881417 -0.0238309 0.042453494 
-0.99972636 0.017113741 0.015954165 
-0.9984188 0.053916343 -0.015904857 
-0.99519104 0.08510419 -0.04849798 
-0.9909103 0.10916271 -0.0786151 
-0.98683834 0.12500507 -0.102586344 
-0.9839991 0.13218544 -0.1194696 
-0.9831542 0.13079166 -0.12767695 
-0.9842375 0.12146819 -0.12853806 
-0.9869624 0.10505988 -0.12193372 
-0.990422 0.08286008 -0.110446766 
-0.9939166 0.056305356 -0.094654635 
-0.9966136 0.027335584 -0.07755162 
-0.998208 -0.002067141 -0.059804518 
-0.99858385 -0.029739887 -0.04411342 
-0.9980639 -0.05413862 -0.030616123 
-0.9970254 -0.07413965 -0.021064423 
-0.9958527 -0.08980123 -0.014600416 
-0.9947634 -0.10152493 -0.011773601 
-0.99380875 -0.1105617 -0.010970773 
-0.9929843 -0.11762432 -0.012109207 
-0.9922656 -0.12336311 -0.013805013 
-0.99178046 -0.12693608 -0.016086107 
-0.9917351 -0.12700696 -0.01818957 
-0.9924215 -0.12123801 -0.020024937 
-0.99391305 -0.10819467 -0.02075785 
-0.99599874 -0.08725146 -0.019332908 
-0.99807966 -0.060278084 -0.0142693855 
-0.9995373 -0.03012008 -0.004237299 
-0.999936 -0.0018541373 0.011165261 
-0.99933875 0.01835659 0.031388737 
-0.9981927 0.024139617 0.055034198 
-0.9967014 0.012145904 0.080242895 
-0.9943881 -0.019752886 0.10393425 
-0.9896257 -0.07097197 0.124915816 
-0.9812481 -0.13297097 0.1395383 
-0.96527296 -0.21411388 0.14967775 
-0.9519565 -0.26382518 0.1554841 
0 0 0 
0 0 0 
0 0 0 
0 0 0 
0 0 0 
0 0 0 
0 0 0 
0 0 0 
0 0 0 
0 0 0 
0 0 0 
-0.68262225 -0.7174148 0.13907889 
-0.6938467 -0.7133981 0.09818372 
-0.71747595 -0.69401467 0.059765752 
-0.74818707 -0.6631499 0.021178178 
-0.7834913 -0.621354 -0.0077971397 
-0.821065 -0.57024467 -0.025951812 
-0.8576291 -0.5133692 -0.030405289 
-0.8911464 -0.45322657 -0.021068301 
-0.92001176 -0.39189044 0.00051686895 
-0.9433221 -0.3304944 0.030281466 
-0.960899 -0.26974407 0.06253993 
-0.97339225 -0.21032387 0.09094789 
-0.9821097 -0.15282406 0.11002386 
-0.988365 -0.09797343 0.11634422 
-0.99297535 -0.046366468 0.10885844 
-0.99601257 0.001381333 0.08920279 
-0.99717695 0.044574145 0.06042695 
-0.99623454 0.08231681 0.027216163 
-0.993513 0.11353881 -0.006393727 
-0.98989004 0.13722853 -0.035863537 
-0.986516 0.15265015 -0.05902641 
-0.9844638 0.15950885 -0.073402874 
-0.9842198 0.1580533 -0.07956445 
-0.9858466 0.14888427 -0.07707166 
-0.9887434 0.13303652 -0.06846745 
-0.99224544 0.111711405 -0.05449533 
-0.9955068 0.08648382 -0.038560107 
-0.9980188 0.059066065 -0.021672126 
-0.99948037 0.031455524 -0.007036953 
-0.9999728 0.00545756 0.004950337 
-0.99977636 -0.017291153 0.012173683 
-0.99923044 -0.036046293 0.015470699 
-0.99862087 -0.050541837 0.014213658 
-0.99804527 -0.06162429 0.010404901 
-0.99753135 -0.07007922 0.0044985204 
-0.9970174 -0.07716637 -0.0012829365 
-0.99652433 -0.083051406 -0.006456334 
-0.99610424 -0.0876491 -0.009697963 
-0.995929 -0.08945782 -0.011082164 
-0.99613684 -0.087218404 -0.010211342 
-0.99682355 -0.079325154 -0.0071026133 
-0.9978277 -0.06586481 -0.0012892584 
-0.99883425 -0.04762311 0.007897403 
-0.9993965 -0.027693115 0.020968644 
-0.9992258 -0.009722006 0.038122322 
-0.9982832 0.00063323264 0.058568303 
-0.9967146 -0.0012339602 0.080984384 
-0.9944658 -0.019518951 0.10323208 
-0.9908517 -0.05558527 0.12297643 
-0.98439634 -0.10879116 0.1383053 
-0.973577 -0.17406085 0.14781973 
-0.9570673 -0.24673949 0.15212451 
-0.9378098 -0.31176206 0.1526995 
-0.91687274 -0.36964518 0.150688 
0 0 0 
0 0 0 
0 0 0 
0 0 0 
0 0 0 
0 0 0 
0 0 0 
0 0 0 
0 0 0 
-0.6952922 -0.6860636 0.21420938 
-0.69626033 -0.69690543 0.17188476 
-0.7081096 -0.6941203 0.12952928 
-0.7297502 -0.6776355 0.090965815 
-0.7582557 -0.6494088 0.057588615 
-0.79112846 -0.610768 0.032837912 
-0.82584286 -0.56357443 0.019172678 
-0.8598817 -0.51017374 0.01806512 
-0.89122736 -0.4525691 0.029917696 
-0.91836566 -0.39219832 0.052772578 
-0.94036734 -0.32991204 0.08286898 
-0.9569878 -0.26657856 0.11450026 
-0.96885186 -0.20317845 0.14157894 
-0.97717303 -0.14116454 0.15876257 
-0.9832677 -0.08191566 0.16270976 
-0.9879019 -0.026800774 0.152747 
-0.9911859 0.0232393 0.1304246 
-0.99274796 0.06739911 0.09954355 
-0.9923849 0.10503883 0.06433512 
-0.9903256 0.13550232 0.02990326 
-0.98740536 0.15821023 -0.00034259591 
-0.9847035 0.1727332 -0.022853704 
-0.9831601 0.17897294 -0.0369469 
-0.9833092 0.17716792 -0.041408576 
-0.98505175 0.16799094 -0.038107205 
-0.9879351 0.15239733 -0.027556041 
-0.9912051 0.13167842 -0.013162198 
-0.99421585 0.107334726 0.0037807908 
-0.9965135 0.08110972 0.019545808 
-0.99794537 0.054819908 0.033165064 
-0.998666 0.030275801 0.041828997 
-0.9989082 0.008833851 0.045875352 
-0.99898654 -0.008554068 0.044191316 
-0.9990097 -0.021963319 0.038693555 
-0.9990489 -0.031785816 0.029848943 
-0.99901766 -0.039329495 0.020422317 
-0.9989046 -0.045374937 0.011441811 
-0.9986894 -0.050924934 0.0051135654 
-0.9984497 -0.055632297 0.0018180053 
-0.99824566 -0.059164364 0.0022933395 
-0.9981759 -0.060063276 0.0061143953 
-0.9982438 -0.057770908 0.013109157 
-0.99840593 -0.051540583 0.023004178 
-0.9984537 -0.042594805 0.035722546 
-0.9981537 -0.032404173 0.051372536 
-0.9972695 -0.024733925 0.06958298 
-0.9956979 -0.023154115 0.08971922 
-0.9933735 -0.032501034 0.11023994 
-0.9900372 -0.055657726 0.12933919 
-0.984916 -0.09477394 0.1447702 
-0.976705 -0.14846346 0.15493879 
-0.9640206 -0.21312943 0.15887205 
-0.9462708 -0.2825224 0.1573297 
-0.9248636 -0.3486349 0.15192443 
-0.9019073 -0.4069356 0.14479885 
-0.88134766 -0.4519647 0.1376741 
0 0 0 
0 0 0 
0 0 0 
0 0 0 
0 0 0 
0 0 0 
0 0 0 
-0.71600366 -0.64347005 0.27071235 
-0.71224666 -0.6611719 0.23570421 
-0.71624774 -0.669942 0.1953636 
-0.72861 -0.66693485 0.15596634 
-0.74853814 -0.65193874 0.121105604 
-0.7743491 -0.62597233 0.09242352 
-0.80379224 -0.59046894 0.07255837 
-0.83474064 -0.5470284 0.06299119 
-0.86505634 -0.49740896 0.06528452 
-0.89303666 -0.44298616 0.0790494 
-0.91735804 -0.3845955 0.10266688 
-0.93716437 -0.32293105 0.13205497 
-0.95227206 -0.25872037 0.16199332 
-0.96320873 -0.1935024 0.18650939 
-0.971113 -0.12907763 0.20069532 
-0.97713447 -0.0677051 0.20155445 
-0.981999 -0.011100157 0.18855959 
-0.9857182 0.039310697 0.1637515 
-0.98796654 0.082844205 0.13061027 
-0.9884264 0.11903401 0.094043925 
-0.98731464 0.14771011 0.05823691 
-0.9852856 0.16867015 0.02761855 
-0.9833206 0.18183087 0.004256458 
-0.9822776 0.18718547 -0.009612495 
-0.9826272 0.18500881 -0.014685504 
-0.98435694 0.1758545 -0.010798646 
-0.9870162 0.1606191 -0.00074259663 
-0.98997396 0.140522 0.01432052 
-0.99265957 0.117018536 0.030558031 
-0.99468845 0.0918205 0.046518337 
-0.9960466 0.066689156 0.058683917 
-0.9968399 0.043323696 0.06658328 
-0.9973986 0.023151092 0.068265684 
-0.9978591 0.0069254544 0.065031745 
-0.998368 -0.0050593126 0.056883406 
-0.99882203 -0.013558998 0.04659143 
-0.9991863 -0.01936394 0.035381984 
-0.9993691 -0.024008032 0.026175333 
-0.99940366 -0.028149718 0.020001043 
-0.9992965 -0.032662615 0.018431436 
-0.9990869 -0.037022997 0.02132313 
-0.99874735 -0.0410865 0.028562045 
-0.9982736 -0.043665163 0.039285723 
-0.9975995 -0.044844754 0.052764956 
-0.99666876 -0.044309217 0.068469144 
-0.9953437 -0.043867253 0.08582989 
-0.99349976 -0.045161173 0.10449329 
-0.9909848 -0.052023634 0.12346199 
-0.9876299 -0.06732658 0.14161319 
-0.9830388 -0.09469356 0.15706047 
-0.97646755 -0.13506414 0.16813388 
-0.96675766 -0.1881006 0.17319873 
-0.9528948 -0.24989857 0.17187852 
-0.9346003 -0.31526008 0.16472228 
-0.91314876 -0.37749672 0.15380418 
-0.8908465 -0.43176362 0.14132498 
-0.8708284 -0.47418904 0.12962545 
-0.856297 -0.5024035 0.11977594 
0 0 0 
0 0 0 
0 0 0 
0 0 0 
0 0 0 
-0.7373908 -0.6073727 0.29555595 
-0.7325163 -0.62287277 0.2746807 
-0.73287094 -0.63526976 0.24358283 
-0.7392738 -0.640148 0.20900923 
-0.7519066 -0.6353968 0.17580552 
-0.77042365 -0.6204631 0.14653738 
-0.793406 -0.5959835 0.123736076 
-0.8192492 -0.56302726 0.10877117 
-0.8460348 -0.52296144 0.103616826 
-0.87213904 -0.4770328 0.108689025 
-0.8961582 -0.42603895 0.12406211 
-0.9170621 -0.37049785 0.14740634 
-0.9342338 -0.31063485 0.17525211 
-0.947551 -0.24744487 0.20228243 
-0.95754766 -0.18236089 0.22326428 
-0.9651496 -0.117953114 0.23360977 
-0.9713456 -0.056610517 0.23083106 
-0.97665584 -0.00080705504 0.21480896 
-0.9810799 0.04809536 0.18753463 
-0.9842082 0.08921384 0.15288936 
-0.9857685 0.1225709 0.11505147 
-0.9858007 0.14829063 0.07878434 
-0.98487127 0.16672592 0.04723598 
-0.9837438 0.17802308 0.023580214 
-0.98319507 0.18236338 0.008436104 
-0.98367405 0.17993629 0.0028744915 
-0.985231 0.171152 0.0051814867 
-0.9875288 0.15674305 0.014786499 
-0.99006623 0.13770878 0.028374806 
-0.99231553 0.115466766 0.044467207 
-0.9940367 0.09154317 0.059254497 
-0.9951359 0.06771779 0.07154661 
-0.9958692 0.04561207 0.07851093 
-0.9963993 0.026623555 0.0804972 
-0.9969894 0.011722318 0.076646954 
-0.9976046 0.0010472689 0.06916727 
-0.9982437 -0.0056506954 0.058972493 
-0.9987425 -0.009673788 0.049191277 
-0.9990754 -0.012096159 0.041255243 
-0.99918616 -0.014674612 0.03757266 
-0.9990903 -0.018050838 0.0386368 
-0.99871916 -0.023168813 0.04498071 
-0.99800974 -0.029446656 0.055762496 
-0.99686134 -0.036907833 0.07003832 
-0.9952531 -0.044360247 0.08662235 
-0.9931663 -0.052133966 0.10441572 
-0.9906232 -0.059942894 0.12277075 
-0.9875679 -0.06984695 0.14082292 
-0.9839135 -0.08340887 0.15797862 
-0.97941196 -0.10416174 0.17292392 
-0.97366065 -0.13399774 0.1844712 
-0.96590495 -0.17489323 0.19089256 
-0.9552588 -0.22560512 0.19126716 
-0.9409479 -0.2835314 0.18500577 
-0.9230687 -0.34343037 0.17320463 
-0.9028378 -0.40010113 0.15748996 
-0.882495 -0.44881243 0.14060643 
-0.8645862 -0.48677528 0.12466222 
-0.8512158 -0.51283467 0.11150119 
-0.8437683 -0.5270128 0.10155077 
0 0 0 
0 0 0 
0 0 0 
-0.7547422 -0.58989334 0.28703707 
-0.7513943 -0.59664965 0.28180835 
-0.7512217 -0.60484016 0.26426202 
-0.7548434 -0.6104336 0.23996335 
-0.76281434 -0.61033374 0.21355835 
-0.77558553 -0.60260135 0.18798637 
-0.7926279 -0.58660245 0.16624936 
-0.81309074 -0.5625601 0.14969867 
-0.8354296 -0.53133935 0.140485 
-0.8582453 -0.49398285 0.13926971 
-0.8801501 -0.4513087 0.14716083 
-0.90015686 -0.40385208 0.16315985 
-0.9175755 -0.3515381 0.18567802 
-0.93204695 -0.29471004 0.21079494 
-0.9436535 -0.23387347 0.23413956 
-0.9528439 -0.17104194 0.2506654 
-0.96039 -0.10851195 0.25666374 
-0.96696824 -0.049509343 0.25004274 
-0.9729415 0.0036868707 0.23102212 
-0.9781743 0.049124546 0.2018955 
-0.9823159 0.08638651 0.16611135 
-0.9850126 0.11549475 0.12810685 
-0.986292 0.13728902 0.09154149 
-0.98648643 0.15239775 0.060161274 
-0.98623425 0.1614579 0.03568458 
-0.98613983 0.16470504 0.020012552 
-0.9866588 0.16231366 0.012601013 
-0.987899 0.15449487 0.013677972 
-0.9896978 0.14163889 0.020896 
-0.99165154 0.124585055 0.033255287 
-0.9934144 0.10435989 0.04729512 
-0.9946869 0.08249067 0.061589457 
-0.9955114 0.060473707 0.07280238 
-0.99596 0.04000468 0.080395095 
-0.99633354 0.022476014 0.0825492 
-0.99671197 0.008895028 0.08053732 
-0.9972188 -0.0002120953 0.07452952 
-0.9977196 -0.0053032557 0.06728769 
-0.9981629 -0.0071345367 0.060166277 
-0.99840146 -0.007564682 0.05601184 
-0.99840665 -0.007991526 0.05586108 
-0.9980783 -0.01045078 0.06107951 
-0.99733406 -0.015553001 0.07129469 
-0.99600935 -0.024195336 0.08590691 
-0.99400204 -0.035447266 0.10345791 
-0.9912597 -0.049127378 0.12243665 
-0.9878736 -0.06368451 0.14159808 
-0.9839505 -0.07945479 0.1597765 
-0.9796038 -0.09614557 0.17644386 
-0.97477025 -0.116005614 0.19069815 
-0.96926206 -0.14045186 0.2020008 
-0.9625917 -0.172372 0.20905784 
-0.9541298 -0.21233237 0.21107197 
-0.9430854 -0.26035225 0.20689799 
-0.9290351 -0.3133491 0.19673863 
-0.91221195 -0.3675232 0.18109728 
-0.893875 -0.417963 0.16215537 
-0.875933 -0.46108857 0.14191101 
-0.8603833 -0.49456322 0.123076595 
-0.84861094 -0.51802844 0.10726619 
-0.8411432 -0.532229 0.09597159 
-0.8383237 -0.5377705 0.08953356 
0 0 0 
0 0 0 
-0.76419526 -0.58895004 0.26295182 
-0.7672339 -0.5879597 0.2562337 
-0.770807 -0.5885982 0.24373929 
-0.776475 -0.5875903 0.22764955 
-0.7854124 -0.5822657 0.20998617 
-0.7978253 -0.570977 0.19354618 
-0.8135956 -0.55298305 0.1796445 
-0.83168864 -0.5284255 0.17047155 
-0.8510215 -0.4979845 0.1666551 
-0.8702353 -0.46245593 0.16977951 
-0.888367 -0.42255566 0.17958531 
-0.9047088 -0.37827942 0.19597602 
-0.9189311 -0.32967255 0.21652167 
-0.9310157 -0.27637854 0.2383796 
-0.94115937 -0.21937592 0.25708622 
-0.9498231 -0.15999779 0.26876947 
-0.9574966 -0.10132079 0.27006358 
-0.9646075 -0.046045125 0.25963876 
-0.9712567 0.0027062935 0.23801917 
-0.9772735 0.04351535 0.20746824 
-0.982273 0.075536326 0.17156398 
-0.98597926 0.0995667 0.1339085 
-0.98830247 0.11653829 0.09837273 
-0.9895005 0.12786476 0.06737406 
-0.98998374 0.13435733 0.043364085 
-0.99026805 0.13657933 0.026743477 
-0.990728 0.13460574 0.018420922 
-0.99157566 0.12840082 0.017061617 
-0.99274886 0.118107215 0.022368385 
-0.99406946 0.10402488 0.031697582 
-0.9952338 0.08705147 0.04395202 
-0.9961041 0.06818088 0.055928964 
-0.9965738 0.048951976 0.06666702 
-0.9968061 0.030762924 0.07369763 
-0.9968877 0.015132454 0.07736918 
-0.99703 0.0032051 0.076947555 
-0.99721634 -0.0044548414 0.07442907 
-0.99747103 -0.0077987984 0.0706462 
-0.99762946 -0.007966918 0.06835301 
-0.9976142 -0.0063081435 0.06874687 
-0.99725944 -0.005289424 0.07379528 
-0.99647135 -0.0065728244 0.083676636 
-0.99506605 -0.012270752 0.09845345 
-0.9928944 -0.022589374 0.11683494 
-0.9898051 -0.037916947 0.13728897 
-0.9858101 -0.056543868 0.15805458 
-0.98104197 -0.07781009 0.17748863 
-0.9757765 -0.099819496 0.19466975 
-0.97020227 -0.12306186 0.20871872 
-0.96439743 -0.14748938 0.21950954 
-0.9581079 -0.17549485 0.22634259 
-0.9509069 -0.20815556 0.2290142 
-0.94210595 -0.24723397 0.22652079 
-0.931133 -0.29176798 0.21877602 
-0.9176927 -0.34007984 0.205392 
-0.9022208 -0.38831556 0.18763964 
-0.8858692 -0.43296552 0.16666386 
-0.87023824 -0.47079793 0.14503388 
-0.85678303 -0.5004218 0.12450265 
-0.8462277 -0.52187485 0.10745019 
-0.83836603 -0.5367285 0.0952104 
-0.8323012 -0.54708415 0.089296214 
0 0 0 
-0.79176635 -0.57483137 0.2065792 
-0.7852264 -0.578165 0.22168648 
-0.7861375 -0.5768323 0.22192882 
-0.7902269 -0.5731556 0.21687394 
-0.79672486 -0.56699747 0.20914952 
-0.8058008 -0.5570239 0.20102108 
-0.81780833 -0.54202014 0.19340037 
-0.83225703 -0.52146065 0.18822084 
-0.8484684 -0.49553162 0.1858758 
-0.865193 -0.46486792 0.18798648 
-0.8814428 -0.43037802 0.19450824 
-0.8963741 -0.39240748 0.20622765 
-0.90964067 -0.3511926 0.22185054 
-0.9212399 -0.30603912 0.24011916 
-0.9313929 -0.25706282 0.25773242 
-0.94048333 -0.20429035 0.2715819 
-0.9488391 -0.14978509 0.27797288 
-0.9567623 -0.09569552 0.2746787 
-0.96434534 -0.045649115 0.26068053 
-0.971527 -0.0019932364 0.23692079 
-0.97803867 0.033048622 0.205787 
-0.9835803 0.059452586 0.17039716 
-0.98787916 0.07770862 0.13437305 
-0.99089074 0.089689136 0.10045709 
-0.9927329 0.09689534 0.07136397 
-0.9937379 0.10084882 0.04811064 
-0.9942538 0.102153376 0.0320011 
-0.99463534 0.100982085 0.022434276 
-0.99508023 0.09710175 0.019663274 
-0.99568444 0.09018314 0.021900345 
-0.99635994 0.080289885 0.028645579 
-0.99701273 0.06761812 0.037328847 
-0.9974762 0.053077508 0.047159392 
-0.9977442 0.03760032 0.05561383 
-0.99778575 0.022662414 0.06253019 
-0.997741 0.009557265 0.06649598 
-0.9976376 -0.0004330657 0.068695135 
-0.9975801 -0.006464197 0.06922552 
-0.9974861 -0.008545011 0.07034582 
-0.99730587 -0.007262396 0.072996125 
-0.9968386 -0.0045735403 0.0793219 
-0.99595493 -0.0024349517 0.0898214 
-0.9944456 -0.0037378557 0.105185606 
-0.99216783 -0.010006125 0.12451096 
-0.9889312 -0.022864467 0.14660317 
-0.98465717 -0.0415369 0.1694848 
-0.9793738 -0.06546557 0.19115773 
-0.9733403 -0.09205959 0.21008025 
-0.9668913 -0.12035442 0.2250245 
-0.96037316 -0.14856972 0.23581886 
-0.95383227 -0.17765597 0.24216211 
-0.9470812 -0.20796153 0.24451824 
-0.93956107 -0.24169941 0.2425003 
-0.93067765 -0.2792183 0.23638174 
-0.9198855 -0.32083905 0.22555023 
-0.9071048 -0.3643874 0.2106724 
-0.8928471 -0.40741816 0.19192348 
-0.87819517 -0.44662902 0.17115998 
-0.8644932 -0.47988537 0.14953831 
-0.85275567 -0.5060165 0.12944189 
-0.8434223 -0.5254102 0.112174325 
-0.83629525 -0.53912795 0.099756144 
-0.831638 -0.54744923 0.09315372 
-0.83199483 -0.5469023 0.093180075 
-0.7950681 -0.5783552 0.18267986 
-0.7978799 -0.57344383 0.18587573 
-0.80187124 -0.56726557 0.18764941 
-0.80721766 -0.5594578 0.18816712 
-0.81418455 -0.5491515 0.18851073 
-0.8233902 -0.5351567 0.18877515 
-0.8348668 -0.5165513 0.19018999 
-0.8484096 -0.49303928 0.19264872 
-0.8630407 -0.46495825 0.19741976 
-0.8778087 -0.4332833 0.20424867 
-0.8916784 -0.39879522 0.2141777 
-0.90412784 -0.36228678 0.22649786 
-0.9150315 -0.3233667 0.24114591 
-0.9246493 -0.2819006 0.25603864 
-0.9334514 -0.23694031 0.26931012 
-0.9418243 -0.18925703 0.27775672 
-0.9500548 -0.13966526 0.27908668 
-0.95815325 -0.09125111 0.27132192 
-0.96601 -0.04649854 0.25428867 
-0.973368 -0.008770439 0.22908047 
-0.97997177 0.020696051 0.19805837 
-0.9855509 0.041131012 0.16430953 
-0.9899583 0.054020714 0.13063051 
-0.99313635 0.06097845 0.09980948 
-0.9952289 0.064448416 0.07325299 
-0.9964433 0.06596615 0.05243532 
-0.9970839 0.06666012 0.037152458 
-0.9973884 0.06663119 0.027871434 
-0.9975793 0.06550793 0.023334235 
-0.99775326 0.0627447 0.023485407 
-0.9979803 0.057758655 0.026445964 
-0.9982108 0.050561257 0.03191779 
-0.99843204 0.041261893 0.037827622 
-0.99855447 0.030745553 0.044088434 
-0.9985943 0.019889135 0.049131494 
-0.99850774 0.010065907 0.053676635 
-0.9983582 0.0024449427 0.057228062 
-0.9981079 -0.0020485132 0.061452746 
-0.99776244 -0.003042284 0.06679055 
-0.99716806 -0.0013311052 0.07519468 
-0.9961938 0.0017234988 0.08714957 
-0.99460137 0.0034020236 0.10371389 
-0.9922408 0.0014525513 0.124322884 
-0.98892456 -0.0068697045 0.14826003 
-0.9845641 -0.022262638 0.1736027 
-0.9791051 -0.04521962 0.19826372 
-0.9726908 -0.07363562 0.2201144 
-0.9656116 -0.10601439 0.23739283 
-0.9583174 -0.13933744 0.24942529 
-0.9511184 -0.17287411 0.25590694 
-0.9441266 -0.20548633 0.25768286 
-0.9370094 -0.23862815 0.25508848 
-0.9292467 -0.27281418 0.24914472 
-0.92017764 -0.3095477 0.23969422 
-0.9094109 -0.34820673 0.22742896 
-0.89699167 -0.38789424 0.21200058 
-0.8835167 -0.42608568 0.19454873 
-0.87006855 -0.46068662 0.17535284 
-0.8577091 -0.48981255 0.15626551 
-0.8472524 -0.51293737 0.13805333 
-0.83879435 -0.5304433 0.1226947 
-0.8320635 -0.54343283 0.1111359 
-0.82670546 -0.55275834 0.10495883 
-0.8228461 -0.55865014 0.10408911 
-0.80302227 -0.5760992 0.15252854 
-0.80868006 -0.56797206 0.15311533 
-0.8146453 -0.5585254 0.15621287 
-0.8209269 -0.5476914 0.16159572 
-0.82843184 -0.5342125 0.16827886 
-0.83771604 -0.5168316 0.1764005 
-0.84907883 -0.4947738 0.18510547 
-0.8619869 -0.46794298 0.19495639 
-0.87567073 -0.43715698 0.2051698 
-0.88900083 -0.40350002 0.2164843 
-0.90121 -0.36843508 0.2282021 
-0.9118828 -0.33237293 0.24082777 
-0.9211401 -0.29564738 0.25316697 
-0.9294592 -0.25710803 0.26457727 
-0.9373703 -0.21661618 0.2727902 
-0.94532615 -0.17352097 0.27613235 
-0.9534151 -0.1295933 0.27240622 
-0.9615125 -0.08642401 0.2608153 
-0.96927553 -0.04757943 0.24133204 
-0.9763969 -0.015123523 0.21545383 
-0.98260295 0.00866564 0.18551648 
-0.9877522 0.024118414 0.15415595 
-0.9917528 0.032005582 0.12410526 
-0.99466383 0.034951236 0.09706863 
-0.99659246 0.0351146 0.074635826 
-0.9977756 0.034840126 0.056834348 
-0.998407 0.03518478 0.0441082 
-0.99870664 0.036554825 0.03534006 
-0.99879307 0.038472496 0.030533375 
-0.9988004 0.040067546 0.028152153 
-0.99877614 0.04059303 0.028256696 
-0.9987975 0.039302666 0.029310523 
-0.9988441 0.03617881 0.031649414 
-0.9989312 0.03127301 0.034038562 
-0.9989816 0.02541915 0.037277125 
-0.9989812 0.019451858 0.04072135 
-0.9988479 0.014568482 0.04572408 
-0.9985634 0.011694003 0.052291818 
-0.9980097 0.011180041 0.062061485 
-0.9970825 0.012709997 0.075266086 