# OOMMF OVF 2.0
# Segment count: 1
# Begin: Segment
# Begin: Header
# Title: m
# meshtype: rectangular
# meshunit: m
# xmin: 0
# ymin: 0
# zmin: 0
# xmax: 1.6e-07
# ymax: 8e-08
# zmax: 5e-09
# valuedim: 3
# valuelabels: m_x m_y m_z
# valueunits: 1 1 1
# Desc: Total simulation time:  5.002216802940704e-10  s
# xbase: 1.25e-09
# ybase: 1.25e-09
# zbase: 2.5e-09
# xnodes: 64
# ynodes: 32
# znodes: 1
# xstepsize: 2.5e-09
# ystepsize: 2.5e-09
# zstepsize: 5e-09
# End: Header
# Begin: Data Text
0 0 0 
0 0 0 
0 0 0 
0 0 0 
0 0 0 
0 0 0 
0 0 0 
0 0 0 
0 0 0 
0 0 0 
0 0 0 
0 0 0 
0 0 0 
0 0 0 
0 0 0 
0 0 0 
0 0 0 
0 0 0 
0 0 0 
0 0 0 
0 0 0 
0 0 0 
0 0 0 
0 0 0 
-0.031193791 -0.9785667 -0.2035543 
-0.066516906 -0.9751914 -0.21113347 
-0.10767638 -0.97026485 -0.21677612 
-0.14548105 -0.9651308 -0.2176186 
-0.17741731 -0.960829 -0.21291044 
-0.2033121 -0.9578644 -0.2028794 
-0.22376941 -0.95625293 -0.18843433 
-0.23944443 -0.9557335 -0.17099713 
-0.2507835 -0.95596886 -0.1524182 
-0.25790453 -0.9567243 -0.13477392 
-0.26068696 -0.9579151 -0.1201704 
-0.25890878 -0.9595737 -0.11038438 
-0.25251174 -0.9617108 -0.10653746 
-0.24178751 -0.96422195 -0.10869616 
-0.22773015 -0.9668508 -0.115492865 
-0.21327369 -0.9691925 -0.12320864 
0 0 0 
0 0 0 
0 0 0 
0 0 0 
0 0 0 
0 0 0 
0 0 0 
0 0 0 
0 0 0 
0 0 0 
0 0 0 
0 0 0 
0 0 0 
0 0 0 
0 0 0 
0 0 0 
0 0 0 
0 0 0 
0 0 0 
0 0 0 
0 0 0 
0 0 0 
0 0 0 
0 0 0 
0 0 0 
0 0 0 
0 0 0 
0 0 0 
0 0 0 
0 0 0 
0 0 0 
0 0 0 
0 0 0 
0 0 0 
0 0 0 
0 0 0 
0 0 0 
0 0 0 
0 0 0 
0 0 0 
0 0 0 
0 0 0 
0.4220798 -0.90510994 -0.051231626 
0.3890478 -0.919287 -0.059608195 
0.33616525 -0.9387769 -0.07543868 
0.27150252 -0.9575242 -0.09712765 
0.19941309 -0.9722198 -0.12256825 
0.12122789 -0.98126763 -0.14972556 
0.027531274 -0.98353183 -0.17862554 
-0.036324795 -0.9804878 -0.19319455 
-0.08598951 -0.9758325 -0.20089015 
-0.12586823 -0.97111213 -0.20272765 
-0.157557 -0.96726865 -0.19891554 
-0.18230061 -0.9647213 -0.18994533 
-0.20118397 -0.9634836 -0.1767043 
-0.21515252 -0.96328354 -0.16060628 
-0.22478715 -0.963797 -0.14340936 
-0.23037119 -0.9647563 -0.12717865 
-0.23186305 -0.9660536 -0.11393053 
-0.22916457 -0.9676596 -0.10544438 
-0.22221573 -0.96955824 -0.102844514 
-0.21125625 -0.971607 -0.106539 
-0.19655022 -0.97357446 -0.11627883 
-0.17695624 -0.97528285 -0.13232534 
-0.1377232 -0.9775684 -0.1593497 
-0.09700389 -0.97823596 -0.18342519 
-0.059418645 -0.97764987 -0.20166837 
-0.025112467 -0.97679776 -0.21268669 
0.0054815058 -0.9763495 -0.21612869 
0.028562205 -0.97647417 -0.21373439 
0 0 0 
0 0 0 
0 0 0 
0 0 0 
0 0 0 
0 0 0 
0 0 0 
0 0 0 
0 0 0 
0 0 0 
0 0 0 
0 0 0 
0 0 0 
0 0 0 
0 0 0 
0 0 0 
0 0 0 
0 0 0 
0 0 0 
0 0 0 
0 0 0 
0 0 0 
0 0 0 
0 0 0 
0 0 0 
0 0 0 
0 0 0 
0 0 0 
0 0 0 
0 0 0 
0 0 0 
0 0 0 
0 0 0 
0.6234474 -0.78006375 -0.053045277 
0.5977968 -0.80014926 -0.048992306 
0.54783887 -0.8352877 -0.046552893 
0.46855083 -0.88208073 -0.0489245 
0.40661773 -0.91182023 -0.05697347 
0.3444654 -0.93608814 -0.0712924 
0.27774468 -0.9563484 -0.09086142 
0.20686546 -0.9717567 -0.113559395 
0.1332623 -0.9815666 -0.13699707 
0.058452938 -0.98562235 -0.15853079 
-0.004378158 -0.9848821 -0.17317064 
-0.054836795 -0.9818276 -0.1816795 
-0.09428934 -0.9782981 -0.18450576 
-0.12443711 -0.9753984 -0.18197095 
-0.14680998 -0.9736495 -0.17450948 
-0.16289884 -0.9730823 -0.16301793 
-0.17384453 -0.973473 -0.14875619 
-0.18052167 -0.97446865 -0.13350193 
-0.18335564 -0.9757929 -0.11920187 
-0.1825407 -0.97725886 -0.10790785 
-0.17802334 -0.9788014 -0.101269804 
-0.16984943 -0.98033756 -0.1004464 
-0.15805194 -0.98174554 -0.10580789 
-0.142613 -0.9828133 -0.11721642 
-0.12225778 -0.9833792 -0.13423233 
-0.09324324 -0.98334265 -0.1560229 
-0.059888344 -0.98244494 -0.17667863 
-0.025994757 -0.9809508 -0.19250979 
0.0074632675 -0.9794897 -0.20135646 
0.04155965 -0.97854644 -0.20179138 
0.081498146 -0.97797537 -0.19215219 
0.15266421 -0.9743695 -0.16522011 
0.21375468 -0.96748024 -0.13524452 
0.25385287 -0.96105796 -0.10920773 
0 0 0 
0 0 0 
0 0 0 
0 0 0 
0 0 0 
0 0 0 
0 0 0 
0 0 0 
0 0 0 
0 0 0 
0 0 0 
0 0 0 
0 0 0 
0 0 0 
0 0 0 
0 0 0 
0 0 0 
0 0 0 
0 0 0 
0 0 0 
0 0 0 
0 0 0 
0 0 0 
0 0 0 
0 0 0 
0 0 0 
0 0 0 
0.7510905 -0.6532257 -0.09570408 
0.7390317 -0.6679387 -0.08769345 
0.70766944 -0.7024393 -0.076046236 
0.65254396 -0.7552225 -0.061849575 
0.6062866 -0.7934273 -0.05375698 
0.55288005 -0.83178675 -0.049542073 
0.48803753 -0.87137717 -0.050213765 
0.42346582 -0.9041557 -0.056385078 
0.35827336 -0.9311144 -0.0683106 
0.2910579 -0.95293814 -0.084819116 
0.2221661 -0.9694291 -0.10416173 
0.15322454 -0.9803893 -0.12393165 
0.08720176 -0.986045 -0.14181413 
0.029444104 -0.98741907 -0.15536 
-0.017739583 -0.98629904 -0.16401131 
-0.054330043 -0.98433936 -0.16770343 
-0.08123971 -0.9826902 -0.16649358 
-0.10001173 -0.9819122 -0.16076739 
-0.112133086 -0.9821257 -0.15117945 
-0.11903796 -0.9831129 -0.13899325 
-0.12173699 -0.9845577 -0.12580313 
-0.120959625 -0.98613155 -0.11363696 
-0.11699001 -0.98763126 -0.104392566 
-0.10998831 -0.98891455 -0.09975278 
-0.09990869 -0.989893 -0.10064874 
-0.086813174 -0.990422 -0.10736766 
-0.07048049 -0.99034315 -0.11938541 
-0.050350457 -0.9894809 -0.13561857 
-0.025413744 -0.9877313 -0.15408167 
0.0030126593 -0.98522675 -0.1712285 
0.033407107 -0.98236763 -0.18395099 
0.0654076 -0.9796163 -0.18993111 
0.10048639 -0.97711784 -0.18746543 
0.14257306 -0.9742114 -0.17488594 
0.1980805 -0.9686113 -0.15018736 
0.25833088 -0.95907086 -0.115966655 
0.32475367 -0.943104 -0.07134338 
0.42676297 -0.90436023 -0.0024837402 
0.50048846 -0.8640413 0.05425928 
0.5413965 -0.8357952 0.09130243 
0 0 0 
0 0 0 
0 0 0 
0 0 0 
0 0 0 
0 0 0 
0 0 0 
0 0 0 
0 0 0 
0 0 0 
0 0 0 
0 0 0 
0 0 0 
0 0 0 
0 0 0 
0 0 0 
0 0 0 
0 0 0 
0 0 0 
0 0 0 
0 0 0 
0 0 0 
0.78420585 -0.60673434 -0.1299791 
0.7787623 -0.615819 -0.119567245 
0.7583038 -0.6433094 -0.105491124 
0.73693407 -0.6692568 -0.09499227 
0.7053321 -0.7039006 -0.08384929 
0.66127026 -0.74664986 -0.072358444 
0.61361086 -0.78706896 -0.06327916 
0.5606579 -0.82603574 -0.05768635 
0.5015632 -0.8632807 -0.05639776 
0.43942508 -0.89624935 -0.060354784 
0.3753789 -0.9242746 -0.06933427 
0.309844 -0.94719094 -0.08262006 
0.24386217 -0.964805 -0.09840006 
0.17949831 -0.97702974 -0.11486193 
0.119503915 -0.98429126 -0.12995954 
0.06731818 -0.98755246 -0.1421564 
0.024875749 -0.98828113 -0.15060444 
-0.00718178 -0.98790145 -0.15491676 
-0.029604727 -0.98747104 -0.1549983 
-0.043644086 -0.98758227 -0.15091865 
-0.05097171 -0.9883678 -0.14328638 
-0.05305686 -0.9896845 -0.13307743 
-0.051210336 -0.9912139 -0.12195363 
-0.046252426 -0.99265975 -0.11174675 
-0.038734686 -0.9937751 -0.10445396 
-0.028794054 -0.99441653 -0.10152194 
-0.016536107 -0.99445486 -0.1038567 
-0.001851314 -0.99377304 -0.11140771 
0.015289707 -0.9922338 -0.12344337 
0.035214283 -0.9897418 -0.1384599 
0.058071382 -0.98630786 -0.15435213 
0.08358393 -0.9821664 -0.1684129 
0.111305736 -0.97770697 -0.17804578 
0.14157523 -0.97320986 -0.18116018 
0.17569788 -0.96857715 -0.17603625 
0.21609096 -0.9629515 -0.16133592 
0.265137 -0.9545762 -0.13596556 
0.32172424 -0.9415088 -0.10027279 
0.3869137 -0.9205283 -0.054089274 
0.46387777 -0.88589513 0.0027072884 
0.5354573 -0.842563 0.058078147 
0.6011967 -0.7918137 0.10767346 
0.6826274 -0.7137183 0.15692738 
0.7217731 -0.666642 0.18609686 
0 0 0 
0 0 0 
0 0 0 
0 0 0 
0 0 0 
0 0 0 
0 0 0 
0 0 0 
0 0 0 
0 0 0 
0 0 0 
0 0 0 
0 0 0 
0 0 0 
0 0 0 
0 0 0 
0 0 0 
0 0 0 
0.78685784 -0.58892626 -0.18444657 
0.79007894 -0.58946633 -0.16824019 
0.78368115 -0.603631 -0.14653881 
0.77430576 -0.6187195 -0.13280322 
0.7567946 -0.64235044 -0.121029146 
0.73376894 -0.67035615 -0.11048027 
0.7030374 -0.7041192 -0.099772945 
0.66418934 -0.7422795 -0.08873363 
0.61945933 -0.7810297 -0.07913787 
0.56963485 -0.818732 -0.072069995 
0.51482946 -0.8545089 -0.06903169 
0.4564363 -0.8869622 -0.07045679 
0.39547262 -0.9152761 -0.07662351 
0.33309588 -0.9389194 -0.08647333 
0.27093327 -0.957506 -0.09888073 
0.2112187 -0.9709955 -0.1120475 
0.15677643 -0.97974217 -0.12460529 
0.11016742 -0.98467135 -0.13522397 
0.07329485 -0.98698455 -0.1431411 
0.046584558 -0.9879162 -0.14782257 
0.029586038 -0.9884109 -0.14889129 
0.02088041 -0.9890163 -0.14632416 
0.018873157 -0.98992014 -0.14036368 
0.021831682 -0.9910095 -0.13199902 
0.028399736 -0.99204946 -0.12260248 
0.03750397 -0.9927584 -0.11412378 
0.04859892 -0.99292755 -0.10831925 
0.061358806 -0.992395 -0.10671135 
0.075811796 -0.9910462 -0.10990891 
0.09191993 -0.98877394 -0.117800094 
0.109842844 -0.98549604 -0.12935296 
0.1295854 -0.9812056 -0.14298059 
0.15131521 -0.9760007 -0.15660924 
0.17495677 -0.9701488 -0.16793334 
0.2007201 -0.96392477 -0.17481594 
0.22913921 -0.95746547 -0.1753719 
0.26140967 -0.9504584 -0.16820781 
0.29909536 -0.9420138 -0.15215766 
0.3435786 -0.93054396 -0.12665609 
0.39518502 -0.9140121 -0.091709994 
0.4539899 -0.8897085 -0.048081636 
0.5191069 -0.8547062 0.0023245465 
0.5847786 -0.80939394 0.053994097 
0.6492784 -0.75350404 0.10329231 
0.713671 -0.6845413 0.14858316 
0.76680183 -0.61477757 0.18456298 
0.8224785 -0.5276296 0.21245301 
0.8443136 -0.48360747 0.23077773 
0 0 0 
0 0 0 
0 0 0 
0 0 0 
0 0 0 
0 0 0 
0 0 0 
0 0 0 
0 0 0 
0 0 0 
0 0 0 
0 0 0 
0 0 0 
0 0 0 
0.76429176 -0.59392375 -0.25122258 
0.77545613 -0.5872541 -0.23194899 
0.7816056 -0.58945745 -0.20404081 
0.78374404 -0.5929289 -0.18488051 
0.7791976 -0.6037305 -0.1684062 
0.76893395 -0.6200168 -0.15594828 
0.75258166 -0.64230615 -0.1451339 
0.7301333 -0.66987735 -0.1347953 
0.7015839 -0.7017584 -0.1237547 
0.666489 -0.73697436 -0.11252253 
0.62596494 -0.7731626 -0.101918966 
0.580245 -0.809033 -0.09370953 
0.53000736 -0.8433373 -0.08873856 
0.47583404 -0.87511706 -0.08804551 
0.41889367 -0.9034382 -0.091255285 
0.36053517 -0.9275823 -0.098007075 
0.3027421 -0.9470588 -0.1068966 
0.24804428 -0.9616672 -0.1169205 
0.19906895 -0.97175586 -0.1267366 
0.15834178 -0.9780365 -0.13554575 
0.12730286 -0.98156726 -0.14254759 
0.10651373 -0.983362 -0.1471535 
0.09522073 -0.98425984 -0.14888145 
0.092109896 -0.98478454 -0.14736074 
0.09531323 -0.9851524 -0.14279449 
0.10310081 -0.9853579 -0.13579425 
0.11390115 -0.9852358 -0.12781598 
0.12666775 -0.98459744 -0.120512135 
0.14070836 -0.98325896 -0.115771614 
0.15582292 -0.98108613 -0.11484464 
0.17191844 -0.9779707 -0.118394695 
0.18915026 -0.9738246 -0.12604722 
0.20751323 -0.9686258 -0.1367571 
0.22716795 -0.9624135 -0.14884609 
0.24811359 -0.955367 -0.1603546 
0.27057657 -0.9476946 -0.16930285 
0.2948323 -0.9396091 -0.17380628 
0.32158247 -0.931051 -0.17242008 
0.3517874 -0.921621 -0.16389143 
0.38660967 -0.9103658 -0.14753675 
0.42704892 -0.8958385 -0.12289311 
0.47346762 -0.87616915 -0.09031035 
0.5256967 -0.8491662 -0.0505941 
0.5823308 -0.8129314 -0.0057865046 
0.64058906 -0.7667878 0.041015435 
0.69794977 -0.7108643 0.08682224 
0.7524258 -0.6458417 0.12939867 
0.8000197 -0.5764739 0.16627176 
0.84099966 -0.50391686 0.1969452 
0.86918825 -0.44202408 0.22164515 
0.8946977 -0.37666446 0.24008305 
0.90106523 -0.3501495 0.25588456 
0 0 0 
0 0 0 
0 0 0 
0 0 0 
0 0 0 
0 0 0 
0 0 0 
0 0 0 
0 0 0 
0 0 0 
0 0 0 
0.75152206 -0.60061073 -0.27291286 
0.76086706 -0.5952423 -0.2583951 
0.7712056 -0.58860517 -0.24245813 
0.7774327 -0.58743316 -0.2247684 
0.77891403 -0.5908841 -0.21011691 
0.7744507 -0.6009121 -0.19781487 
0.76459485 -0.6167043 -0.18727145 
0.7489806 -0.63842016 -0.17733563 
0.7283458 -0.66462225 -0.16670267 
0.70224065 -0.6948051 -0.15525451 
0.6711624 -0.7273723 -0.14307614 
0.6348668 -0.7613112 -0.13171846 
0.5939102 -0.7952088 -0.122121505 
0.5482245 -0.82827324 -0.11581699 
0.49863374 -0.85942477 -0.1129309 
0.44600034 -0.8877738 -0.11375991 
0.3920642 -0.9124289 -0.11730003 
0.3390036 -0.9327115 -0.12298739 
0.289453 -0.94837654 -0.12961084 
0.2461724 -0.95955 -0.1366121 
0.21131836 -0.9668741 -0.14317493 
0.18637227 -0.971144 -0.14881074 
0.17145632 -0.9732616 -0.15285498 
0.16587043 -0.9739467 -0.15464488 
0.16794796 -0.97373384 -0.15373994 
0.17583594 -0.97293127 -0.14995468 
0.18759297 -0.9716436 -0.14393653 
0.20169875 -0.9698514 -0.13677023 
0.21702999 -0.9674377 -0.13023928 
0.23303738 -0.96427935 -0.12593262 
0.24948063 -0.9602478 -0.12523392 
0.26648048 -0.9552279 -0.12856069 
0.28410858 -0.94915396 -0.13560635 
0.30258942 -0.9419972 -0.14519346 
0.32194743 -0.9338675 -0.15569651 
0.34238407 -0.9249047 -0.16530126 
0.36402154 -0.9153377 -0.17217802 
0.38727963 -0.905226 -0.17487267 
0.4127067 -0.8944629 -0.17207365 
0.4411135 -0.8825145 -0.16305585 
0.4733847 -0.8684731 -0.14717844 
0.5101922 -0.85100365 -0.12448647 
0.5518901 -0.8284699 -0.095158115 
0.5980192 -0.7992162 -0.060221743 
0.64748573 -0.76178795 -0.021010788 
0.6980208 -0.71578956 0.020305969 
0.7473908 -0.66150737 0.06176607 
0.79299706 -0.6007092 0.10150972 
0.8325653 -0.5364415 0.13807833 
0.86474985 -0.4722368 0.17088066 
0.88845015 -0.41314957 0.19990948 
0.90545624 -0.3596023 0.22546665 
0.9144124 -0.31963688 0.24835913 
0.9213603 -0.28459397 0.26476675 
0 0 0 
0 0 0 
0 0 0 
0 0 0 
0 0 0 
0 0 0 
0 0 0 
0 0 0 
0 0 0 
0.7537067 -0.59782404 -0.27300668 
0.75685143 -0.5951012 -0.2702418 
0.76470655 -0.5876621 -0.26434284 
0.7726741 -0.58059067 -0.25668916 
0.77771425 -0.5776168 -0.24803127 
0.777985 -0.5807283 -0.23977911 
0.77339953 -0.5899986 -0.23185076 
0.76351863 -0.60577655 -0.22377233 
0.7492266 -0.6265941 -0.21456786 
0.7302465 -0.6520274 -0.20396163 
0.7073172 -0.6804054 -0.19170521 
0.6798027 -0.7112235 -0.17896788 
0.6480756 -0.7431364 -0.16657244 
0.6115064 -0.7756506 -0.15628852 
0.57050765 -0.8077381 -0.14859393 
0.5252272 -0.8386379 -0.14430174 
0.47699878 -0.8672383 -0.14272335 
0.42748246 -0.89253783 -0.14364922 
0.37919295 -0.91373223 -0.14596613 
0.33487973 -0.9303445 -0.14938086 
0.29716703 -0.94245803 -0.15318176 
0.26822415 -0.9504408 -0.15721965 
0.24907382 -0.9550174 -0.16094744 
0.2398149 -0.95689476 -0.16383274 
0.23929422 -0.9567999 -0.16514356 
0.24583101 -0.9553095 -0.16416714 
0.25730824 -0.95287025 -0.16071995 
0.27183732 -0.94977057 -0.15505002 
0.28785926 -0.9461133 -0.14834638 
0.30441192 -0.9418925 -0.14202806 
0.32100838 -0.93699163 -0.13784152 
0.3376421 -0.93126667 -0.13689554 
0.3544516 -0.9245726 -0.13974856 
0.37176928 -0.9167819 -0.14594059 
0.3897585 -0.9078877 -0.15436456 
0.40868145 -0.8979243 -0.16343676 
0.42861715 -0.88708097 -0.17139079 
0.4498125 -0.87546444 -0.1767224 
0.4725028 -0.86315966 -0.17803504 
0.49714088 -0.8499298 -0.17455779 
0.52429074 -0.8352891 -0.16556372 
0.5545206 -0.8183531 -0.15101357 
0.5883709 -0.7979448 -0.13078193 
0.62586755 -0.7727664 -0.10546075 
0.6667358 -0.7414573 -0.07552814 
0.7097003 -0.7032416 -0.04215291 
0.75317466 -0.6577897 -0.0063710357 
0.7947986 -0.60610825 0.030464996 
0.83260226 -0.5497649 0.06732062 
0.86455977 -0.49180335 0.103275485 
0.8898582 -0.4349272 0.13780731 
0.9081106 -0.382284 0.17086251 
0.92031515 -0.33475253 0.20238782 
0.92720276 -0.29365954 0.23250598 
0.93120223 -0.25590837 0.25956386 
0.933306 -0.22402121 0.28063253 
0 0 0 
0 0 0 
0 0 0 
0 0 0 
0 0 0 
0 0 0 
0 0 0 
0.77453434 -0.587438 -0.23454894 
0.76975393 -0.5869561 -0.25092122 
0.7720278 -0.5797069 -0.2606016 
0.77734685 -0.5699689 -0.2662092 
0.7826555 -0.5612577 -0.26914716 
0.78515506 -0.5574272 -0.26982665 
0.7839962 -0.5595609 -0.26877773 
0.77825415 -0.5689008 -0.26584256 
0.76869106 -0.5841316 -0.26058474 
0.7550356 -0.60499084 -0.2527994 
0.7382984 -0.62945735 -0.24227875 
0.71786755 -0.65710443 -0.22995669 
0.6941684 -0.6864582 -0.21657677 
0.6661602 -0.71736634 -0.20400034 
0.6339375 -0.7489135 -0.19300716 
0.59687996 -0.7807424 -0.18486655 
0.5557617 -0.8117977 -0.17920236 
0.51148504 -0.84105855 -0.17607881 
0.46623862 -0.86730474 -0.17436826 
0.42250565 -0.88952607 -0.17387484 
0.3831694 -0.9071655 -0.17387336 
0.35083225 -0.92002654 -0.17455074 
0.32732198 -0.9284478 -0.17562805 
0.3135628 -0.932914 -0.17705908 
0.30914694 -0.93415976 -0.17825213 
0.31284732 -0.9328867 -0.17846245 
0.32263142 -0.92983377 -0.17696913 
0.3364109 -0.925639 -0.17326342 
0.35223672 -0.92076886 -0.16767247 
0.36870804 -0.9155007 -0.1609748 
0.38499323 -0.9098558 -0.1547345 
0.40084672 -0.90372366 -0.15035097 
0.4163904 -0.896876 -0.14910564 
0.43203786 -0.8890635 -0.15135898 
0.44815883 -0.8800996 -0.15677479 
0.46518984 -0.8698434 -0.16422838 
0.4833373 -0.85834074 -0.17215198 
0.5028509 -0.8456386 -0.17898718 
0.5238156 -0.8319028 -0.18318029 
0.54640305 -0.8171036 -0.18380782 
0.5708046 -0.8011099 -0.18001433 
0.5972708 -0.78343904 -0.17172956 
0.6261647 -0.7633635 -0.15872647 
0.6576092 -0.73995066 -0.14150341 
0.6917203 -0.71209484 -0.12018324 
0.72788167 -0.6790211 -0.095491536 
0.76533026 -0.6400694 -0.06768134 
0.80233634 -0.5956966 -0.037444726 
0.83733714 -0.54666334 -0.0050847037 
0.868293 -0.4952109 0.028873771 
0.8940376 -0.4433897 0.06404952 
0.91365236 -0.39396492 0.100155875 
0.9273372 -0.34831205 0.13683723 
0.9355859 -0.30724153 0.17401636 
0.93940604 -0.27005866 0.21115114 
0.9398133 -0.23560387 0.24747056 
0.93762565 -0.20438398 0.28122148 
0.93337893 -0.18145593 0.30964103 
0 0 0 
0 0 0 
0 0 0 
0 0 0 
0 0 0 
0.80709064 -0.5701292 -0.1534844 
0.79750144 -0.5723611 -0.19077325 
0.79478127 -0.5657836 -0.21957149 
0.7962116 -0.554403 -0.24224843 
0.79934174 -0.54148996 -0.26046407 
0.80153066 -0.53115517 -0.27463254 
0.80147684 -0.52568865 -0.28510752 
0.797883 -0.5275388 -0.29169467 
0.7911556 -0.5361756 -0.2942594 
0.7809447 -0.55182254 -0.2926044 
0.7683333 -0.5722564 -0.28668198 
0.7528486 -0.5969439 -0.277267 
0.73514146 -0.62391216 -0.2651429 
0.7140701 -0.65306467 -0.25221106 
0.6896254 -0.6833895 -0.23957412 
0.6605823 -0.7149861 -0.2289674 
0.627158 -0.7470408 -0.22046074 
0.58933485 -0.77889985 -0.21447523 
0.54871106 -0.8092358 -0.2098895 
0.507186 -0.83674634 -0.20644143 
0.46763295 -0.86026096 -0.20315209 
0.4328264 -0.8789501 -0.20027019 
0.40525222 -0.892585 -0.19764295 
0.3865805 -0.9012333 -0.19579059 
0.37727195 -0.90543395 -0.19456466 
0.37677294 -0.9058251 -0.19370899 
0.3834316 -0.90329045 -0.19247448 
0.39519802 -0.8987269 -0.19002262 
0.4098552 -0.89300346 -0.18591286 
0.42558765 -0.88681537 -0.18009363 
0.44113094 -0.880519 -0.17346437 
0.4558739 -0.87420523 -0.16716518 
0.46977273 -0.867654 -0.16275807 
0.48321334 -0.86052734 -0.16123785 
0.49674475 -0.85242784 -0.1631305 
0.51102644 -0.84298205 -0.16802777 
0.5265358 -0.831976 -0.17485997 
0.5437166 -0.8192559 -0.18218695 
0.5627345 -0.80489635 -0.18833925 
0.5836926 -0.78891796 -0.19212356 
0.6065287 -0.7714279 -0.19241054 
0.63114583 -0.75229335 -0.1889701 
0.65752774 -0.7312481 -0.18147601 
0.68556243 -0.70777434 -0.17046927 
0.7153372 -0.6811386 -0.15602252 
0.74651 -0.6507242 -0.13885592 
0.778864 -0.61581707 -0.11891237 
0.81134224 -0.57654303 -0.096551016 
0.843037 -0.5330964 -0.07139246 
0.8722455 -0.48713914 -0.04339817 
0.8978618 -0.44010678 -0.012262201 
0.91856307 -0.39465952 0.022042414 
0.93404984 -0.3521815 0.059323765 
0.94413143 -0.31421676 0.09941744 
0.94939697 -0.28031301 0.1416693 
0.95028794 -0.24996075 0.18566807 
0.94751126 -0.22185929 0.23021916 
0.9414003 -0.19645792 0.2741711 
0.93252534 -0.17607856 0.31526652 
0.9218522 -0.16670533 0.3498543 
0 0 0 
0 0 0 
0 0 0 
0.83695936 -0.5453536 -0.04570134 
0.8288508 -0.55145085 -0.09438393 
0.8257711 -0.54669535 -0.13865918 
0.8258139 -0.5350078 -0.17831996 
0.8274492 -0.5193828 -0.21347003 
0.828737 -0.50375557 -0.24377325 
0.82850534 -0.49099478 -0.26926383 
0.82550323 -0.48459315 -0.28933364 
0.81989765 -0.48524228 -0.30382234 
0.8113531 -0.49414256 -0.31229687 
0.80089545 -0.5094119 -0.31474766 
0.78823656 -0.53060776 -0.31167057 
0.7742233 -0.5551946 -0.3038706 
0.7578708 -0.5828167 -0.29318348 
0.7392766 -0.61195976 -0.28102574 
0.71693736 -0.642909 -0.26957172 
0.6907068 -0.6749679 -0.25950453 
0.6597217 -0.7080686 -0.25180608 
0.6248358 -0.7411161 -0.24561602 
0.58704716 -0.7729485 -0.24067913 
0.54884404 -0.8020214 -0.23565213 
0.51282007 -0.8269711 -0.23050922 
0.48189297 -0.8468891 -0.22485143 
0.45832863 -0.86125857 -0.21947366 
0.4434885 -0.8702012 -0.21463467 
0.43762556 -0.87408715 -0.2108447 
0.4397544 -0.8737443 -0.2078152 
0.44814917 -0.8701387 -0.20499054 
0.46055666 -0.8644324 -0.20160465 
0.4748585 -0.8577324 -0.19698906 
0.4893292 -0.8508813 -0.19120155 
0.5028854 -0.8443908 -0.18468997 
0.5151308 -0.8382708 -0.17872423 
0.5262344 -0.83225006 -0.17446281 
0.5367785 -0.825782 -0.17306957 
0.54757833 -0.81826997 -0.17490616 
0.5594288 -0.80916697 -0.1796893 
0.5730933 -0.7980034 -0.18642649 
0.58904094 -0.7845706 -0.1935971 
0.60756844 -0.768726 -0.19980225 
0.62862796 -0.7505957 -0.20355104 
0.65195704 -0.7302323 -0.20423734 
0.67718256 -0.70775855 -0.20125045 
0.703798 -0.68309635 -0.19505866 
0.73154163 -0.6560055 -0.18575193 
0.759946 -0.62619257 -0.17425552 
0.7889299 -0.5931254 -0.16059846 
0.8178446 -0.55680054 -0.14526956 
0.84638244 -0.5170574 -0.1276265 
0.87338847 -0.47505105 -0.10732722 
0.89817894 -0.43166044 -0.083330885 
0.9194541 -0.38932946 -0.055015706 
0.93671143 -0.34941915 -0.021863509 
0.94924897 -0.31410307 0.016304513 
0.9571613 -0.2834712 0.05904651 
0.9603945 -0.25769904 0.10598929 
0.95933515 -0.23527671 0.15595174 
0.954098 -0.21546555 0.2080183 
0.945038 -0.19789207 0.26027286 
0.9325073 -0.1842365 0.31062362 
0.91768116 -0.1777436 0.3553428 
0.902696 -0.18434235 0.38879034 
0 0 0 
0 0 0 
0.84894705 -0.5283436 0.011916393 
0.85215044 -0.5225198 -0.028510293 
0.8557611 -0.51150405 -0.077695616 
0.8593731 -0.4953185 -0.12703356 
0.8618687 -0.47665337 -0.17315872 
0.8624411 -0.45831153 -0.21481572 
0.86015403 -0.44421974 -0.25060713 
0.85514814 -0.43626645 -0.27998793 
0.8472977 -0.43686768 -0.3020483 
0.83761084 -0.44516104 -0.31660688 
0.8260994 -0.46129277 -0.32368013 
0.81375295 -0.48258343 -0.32391265 
0.7999135 -0.50841343 -0.31883284 
0.78488535 -0.53651065 -0.31001842 
0.76722634 -0.566932 -0.29991972 
0.74669385 -0.59868234 -0.28987548 
0.72189033 -0.63212854 -0.28158098 
0.69302124 -0.6664929 -0.27478883 
0.66007406 -0.70116353 -0.26957738 
0.62480134 -0.7346358 -0.2644496 
0.58917135 -0.76536995 -0.25900963 
0.5561343 -0.79187584 -0.25228417 
0.52827585 -0.8130027 -0.24484918 
0.5077711 -0.82825935 -0.23697054 
0.49572167 -0.8375377 -0.22976246 
0.49203175 -0.84137917 -0.22357555 
0.49559277 -0.8405876 -0.21863309 
0.50443834 -0.83639544 -0.2144407 
0.51638037 -0.83014274 -0.21027215 
0.529327 -0.82313466 -0.20557828 
0.5417007 -0.8164204 -0.20004539 
0.5526002 -0.8104993 -0.19422618 
0.56177247 -0.80544 -0.1888867 
0.56958413 -0.80076903 -0.18531874 
0.5768096 -0.7957987 -0.18437785 
0.5844482 -0.7896848 -0.18659668 
0.59358 -0.7816099 -0.19169986 
0.60510105 -0.7709492 -0.19872147 
0.61971754 -0.757206 -0.2063716 
0.63769895 -0.74025977 -0.21296832 
0.65893817 -0.72008324 -0.21744135 
0.6829527 -0.6969591 -0.21868643 
0.7089366 -0.6711225 -0.21680307 
0.736162 -0.6428418 -0.21170717 
0.7637534 -0.61227584 -0.20444824 
0.7913575 -0.57932425 -0.19528615 
0.81833947 -0.5440983 -0.18514198 
0.8446747 -0.50635296 -0.17358382 
0.86966735 -0.46683195 -0.16045813 
0.89317966 -0.42589602 -0.14437076 
0.9142669 -0.38557813 -0.12428056 
0.9326399 -0.34702095 -0.098790266 
0.9474445 -0.3128145 -0.06705161 
0.9585137 -0.28359094 -0.028769571 
0.96532977 -0.26053947 0.016052358 
0.967872 -0.24250191 0.066457406 
0.96584785 -0.22877453 0.121655785 
0.9593341 -0.21762767 0.1797674 
0.94830287 -0.20873298 0.23906532 
0.9333743 -0.20242418 0.2963731 
0.91597813 -0.20042883 0.34758094 
0.9002596 -0.20374224 0.38473594 
0 0 0 
0.86990505 -0.4572672 0.1848563 
0.8697134 -0.48095575 0.11081641 
0.8762124 -0.47922525 0.050940372 
0.8843592 -0.4667324 -0.008362342 
0.8911733 -0.4487117 -0.06684269 
0.8953034 -0.4281956 -0.122801974 
0.8958015 -0.4089983 -0.17395474 
0.892728 -0.3937647 -0.21905763 
0.88616836 -0.38588938 -0.2565058 
0.8771668 -0.3859253 -0.2857274 
0.8661412 -0.39510015 -0.30609682 
0.85424787 -0.4113377 -0.31790257 
0.8412998 -0.4341517 -0.32206705 
0.8278441 -0.4607062 -0.32003763 
0.8127619 -0.49060825 -0.31419995 
0.79592276 -0.52214575 -0.30638364 
0.7757941 -0.5556817 -0.29893407 
0.7522133 -0.5904654 -0.29244792 
0.72437155 -0.62651104 -0.28769743 
0.6931817 -0.66266966 -0.2834929 
0.65965503 -0.6977265 -0.27934387 
0.6262735 -0.7299736 -0.27371544 
0.59547937 -0.7578386 -0.2666179 
0.56996036 -0.78018004 -0.2578069 
0.5515503 -0.7962762 -0.24846861 
0.5411481 -0.8061562 -0.23931353 
0.53849083 -0.810229 -0.23142329 
0.5422516 -0.80953324 -0.22498728 
0.5505069 -0.80536056 -0.21985596 
0.56105375 -0.79925287 -0.21543823 
0.57193977 -0.7926863 -0.21102908 
0.58172256 -0.7867575 -0.20642546 
0.58959544 -0.78211707 -0.20166843 
0.5954696 -0.7786956 -0.19760871 
0.599802 -0.77600795 -0.1950625 
0.6035382 -0.77311105 -0.19504151 
0.6078923 -0.7689488 -0.1979518 
0.61413276 -0.76247317 -0.20365562 
0.62344813 -0.7527467 -0.21138775 
0.6366444 -0.7391962 -0.21971114 
0.65409344 -0.7214479 -0.22732082 
0.6755815 -0.69962233 -0.2326333 
0.7003264 -0.6739836 -0.23513635 
0.727294 -0.64511085 -0.23425514 
0.75514734 -0.61357564 -0.23081928 
0.7829931 -0.57985014 -0.22515687 
0.80983293 -0.5444095 -0.21860713 
0.83550394 -0.507269 -0.21121407 
0.8594551 -0.468993 -0.20342702 
0.88193125 -0.42958573 -0.19404523 
0.90240234 -0.39052495 -0.18209964 
0.9210383 -0.3525105 -0.16560477 
0.93718827 -0.31811666 -0.14310814 
0.9508183 -0.28828156 -0.1133062 
0.9612379 -0.2651814 -0.075501636 
0.9681879 -0.2484269 -0.02994001 
0.97095233 -0.23816793 0.022972148 
0.9691882 -0.23240657 0.08161778 
0.9623843 -0.23002735 0.14458211 
0.950598 -0.22946182 0.20907119 
0.9341938 -0.23063757 0.2721918 
0.91474026 -0.2340788 0.32932892 
0.89503664 -0.24179992 0.37475634 
0.8775663 -0.2634234 0.4006064 
0.8712712 -0.43354738 0.23005077 
0.8809622 -0.43596154 0.18396546 
0.89410365 -0.4298812 0.12562157 
0.90705824 -0.41637385 0.062275097 
0.9173791 -0.39800638 -0.0025916598 
0.9234802 -0.37800124 -0.06556964 
0.924976 -0.3590797 -0.12442344 
0.92185456 -0.34493238 -0.17665182 
0.915059 -0.3373456 -0.22105454 
0.9053172 -0.33873728 -0.25623786 
0.8939563 -0.34831727 -0.28198817 
0.88133967 -0.36631978 -0.29841295 
0.8682941 -0.3900056 -0.30653057 
0.85421276 -0.41870734 -0.30822837 
0.83919847 -0.4499291 -0.30546668 
0.8219251 -0.48361734 -0.30092123 
0.8021652 -0.5185722 -0.29599646 
0.778719 -0.55511206 -0.29231387 
0.75186574 -0.5923916 -0.28943068 
0.721662 -0.6298379 -0.28724256 
0.68978435 -0.6659656 -0.28405535 
0.6580302 -0.6992438 -0.27938232 
0.6290753 -0.72812515 -0.2722097 
0.60512775 -0.751352 -0.26323107 
0.5879522 -0.7683317 -0.25293973 
0.57820815 -0.77890664 -0.24285801 
0.5754827 -0.78367716 -0.23381606 
0.57846874 -0.7836038 -0.22658151 
0.58522534 -0.7801472 -0.22109215 
0.59370494 -0.7749014 -0.2168927 
0.6020646 -0.76939297 -0.2134307 
0.60895663 -0.7648641 -0.21013077 
0.6137037 -0.7618896 -0.20710373 
0.6162321 -0.76051974 -0.20461601 
0.6171259 -0.76007366 -0.20357698 
0.6174286 -0.7595354 -0.2046658 
0.6185294 -0.757603 -0.20846891 
0.6219589 -0.75296885 -0.21495394 
0.62908375 -0.7445467 -0.22339205 
0.6409369 -0.7314645 -0.23272248 
0.6579131 -0.71340185 -0.24126391 
0.67968494 -0.6903223 -0.24795881 
0.7053065 -0.66276044 -0.2515777 
0.7332216 -0.6314365 -0.25233737 
0.7619914 -0.59728205 -0.25024667 
0.7900289 -0.5612315 -0.24672575 
0.81664765 -0.52384716 -0.24222043 
0.84104323 -0.48585123 -0.23789704 
0.86348796 -0.44723865 -0.23316576 
0.8836802 -0.40900642 -0.22764704 
0.90221965 -0.3713399 -0.2193316 
0.91880035 -0.3363511 -0.20657665 
0.93381244 -0.3048617 -0.1872262 
0.9467213 -0.2795916 -0.1598353 
0.95741254 -0.26092085 -0.123619445 
0.96500593 -0.25026274 -0.0783082 
0.9688968 -0.24621369 -0.02485583 
0.9680934 -0.24802075 0.035789683 
0.9621009 -0.253196 0.101260856 
0.9505384 -0.2603992 0.16931933 
0.9339721 -0.26821682 0.23612662 
0.91375136 -0.27665755 0.2975216 
0.8928262 -0.28642622 0.34759378 
0.87591577 -0.29820573 0.37926885 
0.8736831 -0.3928197 0.28700274 
0.88761765 -0.38736975 0.24915788 
0.9054134 -0.3778249 0.19358453 
0.9223894 -0.36407974 0.12901062 
0.93572325 -0.34740463 0.06109015 
0.9441205 -0.32953706 -0.0064570825 
0.9470149 -0.31346002 -0.07004039 
0.94492453 -0.30139637 -0.12758541 
0.93853164 -0.2964565 -0.17683911 
0.92916566 -0.2992993 -0.21695888 
0.91761863 -0.31127918 -0.24714653 
0.9049938 -0.3305582 -0.26780137 
0.8912758 -0.35672587 -0.27995387 
0.87687796 -0.3869197 -0.28526872 
0.86091375 -0.42058575 -0.28624356 
0.84331274 -0.45576686 -0.28478128 
0.8228918 -0.49260208 -0.28318274 
0.799648 -0.5301616 -0.2819429 
0.7730027 -0.5684197 -0.28171977 
0.7438437 -0.60631084 -0.28121835 
0.7130741 -0.64279777 -0.2798866 
0.68284374 -0.6763657 -0.27614135 
0.65519106 -0.7055773 -0.26997292 
0.63233125 -0.7293495 -0.26116392 
0.6156579 -0.7469602 -0.25102952 
0.6057356 -0.7584314 -0.24055399 
0.6021117 -0.7641929 -0.23123768 
0.6034823 -0.7653349 -0.22376716 
0.6080832 -0.76322025 -0.21847133 
0.6139832 -0.75945634 -0.21505988 
0.6194835 -0.7555974 -0.2128678 
0.62335587 -0.7528093 -0.21143726 
0.6249265 -0.7518169 -0.21032867 
0.6242149 -0.7525408 -0.20985301 
0.6218033 -0.75438666 -0.21038441 
0.61886 -0.75614446 -0.21273892 
0.6169393 -0.75638705 -0.21740432 
0.6177545 -0.75364065 -0.22451124 
0.6229348 -0.74656236 -0.23365991 
0.63362634 -0.73427033 -0.24364915 
0.65028334 -0.71621054 -0.25332624 
0.6725117 -0.6925244 -0.2610326 
0.6990112 -0.66370463 -0.2662324 
0.72810626 -0.630786 -0.26827303 
0.7576939 -0.59497565 -0.26814938 
0.7863526 -0.557421 -0.26632988 
0.8126755 -0.5192558 -0.26444656 
0.8365322 -0.4808807 -0.2626171 
0.8575205 -0.44312948 -0.2613329 
0.87642145 -0.40588963 -0.25911224 
0.8931954 -0.37060082 -0.25467062 
0.9087073 -0.33762363 -0.24548177 
0.9227362 -0.30955654 -0.22963575 
0.93562496 -0.28713697 -0.20532511 
0.9466467 -0.27284187 -0.1715151 
0.95533615 -0.26626825 -0.12819621 
0.9604806 -0.26786432 -0.07566839 
0.96122736 -0.27531546 -0.015605699 
0.9565772 -0.28708205 0.05043825 