# OOMMF OVF 2.0
# Segment count: 1
# Begin: Segment
# Begin: Header
# Title: m
# meshtype: rectangular
# meshunit: m
# xmin: 0
# ymin: 0
# zmin: 0
# xmax: 1.6e-07
# ymax: 8e-08
# zmax: 5e-09
# valuedim: 3
# valuelabels: m_x m_y m_z
# valueunits: 1 1 1
# Desc: Total simulation time:  3.000283995347062e-10  s
# xbase: 1.25e-09
# ybase: 1.25e-09
# zbase: 2.5e-09
# xnodes: 64
# ynodes: 32
# znodes: 1
# xstepsize: 2.5e-09
# ystepsize: 2.5e-09
# zstepsize: 5e-09
# End: Header
# Begin: Data Text
0 0 0 
0 0 0 
0 0 0 
0 0 0 
0 0 0 
0 0 0 
0 0 0 
0 0 0 
0 0 0 
0 0 0 
0 0 0 
0 0 0 
0 0 0 
0 0 0 
0 0 0 
0 0 0 
0 0 0 
0 0 0 
0 0 0 
0 0 0 
0 0 0 
0 0 0 
0 0 0 
0 0 0 
0.99040097 -0.1366031 -0.021108845 
0.992227 -0.12417456 -0.008139736 
0.99415416 -0.10776213 0.0067024017 
0.99574697 -0.09002752 0.019575013 
0.99696904 -0.07233582 0.028642112 
0.99791586 -0.055348054 0.033176113 
0.99867004 -0.039255906 0.033425536 
0.999239 -0.024022965 0.030728353 
0.9995886 -0.009637316 0.027014086 
0.99969333 0.0038943405 0.024455026 
0.9995575 0.016539177 0.024726879 
0.9991856 0.028249236 0.028812284 
0.9985763 0.03874058 0.036669 
0.99774665 0.047396373 0.047488634 
0.9967884 0.05342174 0.059657916 
0.99593955 0.056330636 0.07022318 
0 0 0 
0 0 0 
0 0 0 
0 0 0 
0 0 0 
0 0 0 
0 0 0 
0 0 0 
0 0 0 
0 0 0 
0 0 0 
0 0 0 
0 0 0 
0 0 0 
0 0 0 
0 0 0 
0 0 0 
0 0 0 
0 0 0 
0 0 0 
0 0 0 
0 0 0 
0 0 0 
0 0 0 
0 0 0 
0 0 0 
0 0 0 
0 0 0 
0 0 0 
0 0 0 
0 0 0 
0 0 0 
0 0 0 
0 0 0 
0 0 0 
0 0 0 
0 0 0 
0 0 0 
0 0 0 
0 0 0 
0 0 0 
0 0 0 
0.96426785 -0.12274666 -0.2347785 
0.9696743 -0.12257955 -0.21143822 
0.975674 -0.12473973 -0.18027854 
0.9808899 -0.12890305 -0.14573632 
0.9847986 -0.13441859 -0.11001487 
0.98734695 -0.14010711 -0.0742707 
0.98970747 -0.13787614 -0.038332157 
0.9921498 -0.12410407 -0.01539989 
0.99423635 -0.107183404 0.0024393331 
0.99587125 -0.089314096 0.016233118 
0.9971013 -0.071614735 0.025695905 
0.99804085 -0.054654326 0.030451108 
0.99877375 -0.03856367 0.031048037 
0.99931645 -0.023340581 0.028668044 
0.99963814 -0.008926269 0.025378203 
0.9997227 0.004601551 0.023093792 
0.9995719 0.017254792 0.023631454 
0.99919546 0.028924776 0.027782032 
0.9985863 0.03932272 0.03576675 
0.99775726 0.04774364 0.046915207 
0.9967496 0.05309351 0.060592424 
0.9956306 0.053240675 0.076715015 
0.99439085 0.037405323 0.098932974 
0.99244314 0.011038157 0.12220785 
0.98920995 -0.016110385 0.14561617 
0.98497534 -0.041043412 0.16774686 
0.9804694 -0.061322425 0.18686728 
0.9768548 -0.07430808 0.20058209 
0 0 0 
0 0 0 
0 0 0 
0 0 0 
0 0 0 
0 0 0 
0 0 0 
0 0 0 
0 0 0 
0 0 0 
0 0 0 
0 0 0 
0 0 0 
0 0 0 
0 0 0 
0 0 0 
0 0 0 
0 0 0 
0 0 0 
0 0 0 
0 0 0 
0 0 0 
0 0 0 
0 0 0 
0 0 0 
0 0 0 
0 0 0 
0 0 0 
0 0 0 
0 0 0 
0 0 0 
0 0 0 
0 0 0 
0.9457441 -0.083902895 -0.3138926 
0.95202136 -0.09157599 -0.29200882 
0.95863533 -0.10489492 -0.2646046 
0.9646481 -0.11651428 -0.2363865 
0.97095805 -0.11840728 -0.20789497 
0.9768709 -0.12077038 -0.1764592 
0.9818171 -0.124598704 -0.14321491 
0.9855913 -0.12889762 -0.10952289 
0.98831755 -0.13161804 -0.07684488 
0.9906476 -0.12820873 -0.046688102 
0.9928632 -0.117066175 -0.022765065 
0.9947969 -0.10180526 -0.0038808798 
0.9963225 -0.08502672 0.0105823865 
0.9974673 -0.06813594 0.020411158 
0.99832624 -0.051805776 0.025709666 
0.9989823 -0.036253914 0.026835123 
0.999451 -0.021420717 0.025278257 
0.9997162 -0.0073967744 0.022647154 
0.99976027 0.0058094645 0.02111099 
0.9995948 0.018051496 0.022008441 
0.9992216 0.02925583 0.026463164 
0.9986469 0.038971897 0.034432437 
0.99788225 0.046270285 0.045719266 
0.99698615 0.049560808 0.059686165 
0.99601406 0.046122704 0.07634671 
0.9948549 0.03190666 0.096154235 
0.9930203 0.009250874 0.11758071 
0.9901095 -0.015872715 0.13939604 
0.9863137 -0.039634872 0.16004492 
0.98227847 -0.058927003 0.1779232 
0.9789767 -0.071821086 0.19090946 
0.97684956 -0.08460123 0.19648807 
0.97378486 -0.10110431 0.20376691 
0.97101635 -0.11208797 0.21110119 
0 0 0 
0 0 0 
0 0 0 
0 0 0 
0 0 0 
0 0 0 
0 0 0 
0 0 0 
0 0 0 
0 0 0 
0 0 0 
0 0 0 
0 0 0 
0 0 0 
0 0 0 
0 0 0 
0 0 0 
0 0 0 
0 0 0 
0 0 0 
0 0 0 
0 0 0 
0 0 0 
0 0 0 
0 0 0 
0 0 0 
0 0 0 
0.922192 -0.018721977 -0.38627917 
0.9316036 -0.02903517 -0.36231422 
0.940983 -0.04852232 -0.33495775 
0.94798326 -0.07024559 -0.3104728 
0.95507014 -0.08102831 -0.2850888 
0.9617895 -0.09185313 -0.25792274 
0.96792805 -0.100713 -0.23015712 
0.97381794 -0.10527455 -0.20148405 
0.9791583 -0.10895437 -0.17140014 
0.9836673 -0.11275167 -0.14030576 
0.9871981 -0.116089225 -0.1093766 
0.98991483 -0.11707374 -0.0797647 
0.9921382 -0.11345526 -0.052819166 
0.9940917 -0.10432298 -0.029976739 
0.99574834 -0.09142359 -0.011271055 
0.99705315 -0.07664852 0.0031917293 
0.99802107 -0.061435744 0.013404671 
0.9987334 -0.04651707 0.019176612 
0.9992587 -0.032072566 0.021297699 
0.9996201 -0.018221492 0.020684747 
0.99980146 -0.0049699703 0.019300329 
0.9997999 0.0074039465 0.018582996 
0.9996173 0.018837394 0.020261424 
0.999269 0.029046783 0.024857929 
0.99875396 0.037574816 0.03284527 
0.99810344 0.043351557 0.043707155 
0.9973612 0.044684954 0.057218272 
0.99654675 0.039598167 0.072983354 
0.9955063 0.02644375 0.09092858 
0.9938797 0.0068316585 0.11025714 
0.9914052 -0.015814316 0.12986821 
0.98817533 -0.038003016 0.14854385 
0.98466855 -0.057336006 0.16474402 
0.9814456 -0.07276621 0.17739695 
0.9787063 -0.08672848 0.18604332 
0.9759729 -0.099603824 0.19379367 
0.97383493 -0.10702697 0.2004766 
0.9726256 -0.11207735 0.2035638 
0.9697612 -0.12086746 0.21202426 
0.96694493 -0.12510258 0.22218649 
0 0 0 
0 0 0 
0 0 0 
0 0 0 
0 0 0 
0 0 0 
0 0 0 
0 0 0 
0 0 0 
0 0 0 
0 0 0 
0 0 0 
0 0 0 
0 0 0 
0 0 0 
0 0 0 
0 0 0 
0 0 0 
0 0 0 
0 0 0 
0 0 0 
0 0 0 
0.8994751 0.0075318906 -0.43690726 
0.91112757 -0.0010014654 -0.41212314 
0.9232492 -0.011372417 -0.38403344 
0.93459994 -0.019550078 -0.35516316 
0.9445345 -0.03336951 -0.32671276 
0.95262444 -0.048615873 -0.30023846 
0.95983744 -0.060264528 -0.2740078 
0.9663431 -0.07032856 -0.24745728 
0.9722108 -0.07863466 -0.22050588 
0.9774932 -0.084726885 -0.19320567 
0.98218566 -0.089607514 -0.1651724 
0.9861263 -0.09387506 -0.13690342 
0.98931384 -0.096865274 -0.108974285 
0.99181086 -0.09753065 -0.08245622 
0.99382895 -0.09440793 -0.05823458 
0.9954937 -0.08727021 -0.03709725 
0.9968513 -0.0768818 -0.019409984 
0.99789053 -0.06470649 -0.0052512246 
0.99864274 -0.05184606 0.0049789045 
0.99917567 -0.038925067 0.011530088 
0.9995501 -0.02621309 0.014579408 
0.9997861 -0.013713251 0.015486135 
0.9998811 -0.0017531962 0.015319845 
0.9998274 0.009507519 0.015963094 
0.9996398 0.019675707 0.018250767 
0.99932116 0.028576816 0.023254247 
0.99888974 0.03562563 0.030823933 
0.9983626 0.039830536 0.04105674 
0.99778044 0.039807934 0.053380642 
0.9971255 0.03404341 0.06768913 
0.99625343 0.022057418 0.08362229 
0.9949124 0.004735918 0.10063248 
0.9929016 -0.015395999 0.117937796 
0.9902757 -0.036032904 0.13437203 
0.9872892 -0.055001643 0.14911394 
0.98431486 -0.07156974 0.16125165 
0.9814977 -0.08594612 0.17110087 
0.97886133 -0.09793901 0.17955054 
0.9765307 -0.106188424 0.18738209 
0.9744764 -0.11157743 0.19479819 
0.9721147 -0.11393824 0.20496662 
0.9702533 -0.10709832 0.21711406 
0.96941817 -0.08951553 0.22850695 
0.9673475 -0.08142618 0.24001823 
0 0 0 
0 0 0 
0 0 0 
0 0 0 
0 0 0 
0 0 0 
0 0 0 
0 0 0 
0 0 0 
0 0 0 
0 0 0 
0 0 0 
0 0 0 
0 0 0 
0 0 0 
0 0 0 
0 0 0 
0 0 0 
0.88256514 0.027097363 -0.46940863 
0.89284205 0.021164086 -0.4498724 
0.9032222 0.015145399 -0.428906 
0.9155839 0.012012161 -0.4019477 
0.9279841 0.006875296 -0.37255633 
0.93943185 0.00013632585 -0.3427357 
0.94939405 -0.009893852 -0.31393155 
0.9578032 -0.021741774 -0.28660157 
0.9649775 -0.032708127 -0.2602859 
0.9712419 -0.042622093 -0.23424903 
0.97665924 -0.051206615 -0.20860198 
0.9813804 -0.05835066 -0.18299675 
0.9854013 -0.0644222 -0.15758894 
0.9887824 -0.06935047 -0.13228753 
0.99150896 -0.07286039 -0.10770933 
0.9936875 -0.07395578 -0.084355265 
0.9954064 -0.07212694 -0.06295881 
0.9967797 -0.06703353 -0.044010434 
0.9978482 -0.05942527 -0.027705967 
0.9986392 -0.050127465 -0.014391637 
0.9991907 -0.040022086 -0.0040437523 
0.9995583 -0.029566977 0.003021641 
0.9997941 -0.018865127 0.007472716 
0.9999194 -0.00818026 0.009714675 
0.9999334 0.0023291283 0.011308711 
0.99984187 0.012082635 0.013053288 
0.99964863 0.020861201 0.01635915 
0.99937344 0.028217396 0.021366406 
0.9990214 0.03373732 0.028602414 
0.9986228 0.03657849 0.03761234 
0.998192 0.035563186 0.04845593 
0.9977059 0.029831346 0.060770713 
0.9970459 0.018905124 0.07444603 
0.99602026 0.0037786902 0.08904757 
0.9944909 -0.014201525 0.10385637 
0.99243224 -0.03294493 0.11829162 
0.9900001 -0.051109917 0.13148196 
0.9873686 -0.067516685 0.14333427 
0.98473024 -0.08189421 0.15362248 
0.9821348 -0.093676075 0.16320531 
0.979727 -0.102089725 0.17237346 
0.97746414 -0.10665952 0.18217482 
0.97537297 -0.10576245 0.19355115 
0.9736651 -0.096822634 0.20640203 
0.9724895 -0.079473466 0.21897097 
0.9716131 -0.056729358 0.22967316 
0.9719581 -0.024172429 0.23390862 
0.97080517 -0.006375198 0.2397846 
0 0 0 
0 0 0 
0 0 0 
0 0 0 
0 0 0 
0 0 0 
0 0 0 
0 0 0 
0 0 0 
0 0 0 
0 0 0 
0 0 0 
0 0 0 
0 0 0 
0.8772249 0.03242676 -0.4789833 
0.8850898 0.030515758 -0.46441886 
0.89070076 0.030970253 -0.4535338 
0.90011513 0.03316014 -0.4343884 
0.9108243 0.033518873 -0.41143134 
0.92244864 0.033596855 -0.38465568 
0.9341209 0.03132109 -0.35557997 
0.9449599 0.026688917 -0.3260959 
0.95458245 0.0189055 -0.29734644 
0.9627924 0.0093275085 -0.27008116 
0.9698001 -0.00086012686 -0.24389987 
0.9757123 -0.010641999 -0.21879773 
0.9807241 -0.01974303 -0.19439828 
0.9848844 -0.02795226 -0.17094278 
0.98834926 -0.035140973 -0.14809114 
0.9911613 -0.041251592 -0.12608603 
0.99343675 -0.045646932 -0.10488051 
0.9952265 -0.04802694 -0.08495739 
0.9966353 -0.04775192 -0.066617884 
0.9977249 -0.045068484 -0.050139245 
0.99855214 -0.040212657 -0.035729997 
0.9991508 -0.0339676 -0.023319714 
0.9995532 -0.026779182 -0.013281038 
0.99980676 -0.018903697 -0.0053938343 
0.9999447 -0.010520672 0.00010555165 
0.99999005 -0.0016834028 0.004132077 
0.9999503 0.007033538 0.0070738383 
0.99982953 0.015303658 0.01033159 
0.99964654 0.022489257 0.014177736 
0.99940836 0.028370852 0.019445227 
0.9991398 0.03246428 0.025805378 
0.9988535 0.034135662 0.03356441 
0.998568 0.032637928 0.042389575 
0.99825394 0.027095098 0.052488483 
0.9978166 0.017535614 0.06367497 
0.9971222 0.004205665 0.07569389 
0.99603736 -0.01148281 0.0881909 
0.99452704 -0.028466176 0.10052696 
0.9926147 -0.0451783 0.112583704 
0.9904331 -0.060841702 0.123857394 
0.98807055 -0.07461283 0.13472007 
0.9856866 -0.08589682 0.14506455 
0.98333645 -0.09390127 0.15566629 
0.981176 -0.0974162 0.16674495 
0.97922975 -0.09512425 0.17905463 
0.97770876 -0.08507387 0.19195873 
0.97659916 -0.067204125 0.2042984 
0.97589743 -0.041944377 0.21416125 
0.97550046 -0.01034038 0.21975473 
0.9748699 0.024050957 0.22147329 
0.97460616 0.06615806 0.21392982 
0.9728962 0.08982548 0.21308316 
0 0 0 
0 0 0 
0 0 0 
0 0 0 
0 0 0 
0 0 0 
0 0 0 
0 0 0 
0 0 0 
0 0 0 
0 0 0 
0.88484997 0.018539088 -0.46550718 
0.8876859 0.027764132 -0.45961168 
0.8945231 0.037264705 -0.44546607 
0.9017336 0.045320705 -0.42991012 
0.91032296 0.052131407 -0.4106024 
0.91995287 0.057101563 -0.38784835 
0.93030304 0.059658706 -0.36190784 
0.9406996 0.05982785 -0.3339236 
0.9505871 0.056708585 -0.30523476 
0.95945317 0.050908897 -0.27723256 
0.9672107 0.042645887 -0.25036937 
0.9737826 0.033365533 -0.22502062 
0.9793368 0.02354826 -0.20086052 
0.98389786 0.013870697 -0.17819282 
0.9876297 0.0045964527 -0.15673712 
0.99059767 -0.00400932 -0.13674876 
0.9929635 -0.011400753 -0.11787158 
0.9948098 -0.017343936 -0.10026302 
0.9962563 -0.021157194 -0.083820716 
0.9973716 -0.022941342 -0.06872767 
0.9982303 -0.022518035 -0.055038657 
0.9988817 -0.02049687 -0.042607725 
0.99935526 -0.017128212 -0.031554803 
0.9996832 -0.012785565 -0.021681791 
0.9998808 -0.007545919 -0.013475992 
0.9999771 -0.0013715127 -0.0066341455 
0.9999847 0.005369211 -0.0014005571 
0.9999177 0.012421154 0.0032089297 
0.9997927 0.018988205 0.0073512276 
0.9996213 0.024760742 0.0120100975 
0.99942964 0.02921678 0.016935894 
0.999229 0.03211436 0.02258369 
0.9990457 0.03301648 0.02859471 
0.99888533 0.031214323 0.035410106 
0.99872696 0.026351728 0.043012958 
0.9985048 0.017951054 0.05163238 
0.9981063 0.006653284 0.06115128 
0.9974326 -0.0071297144 0.07125596 
0.99639845 -0.022023108 0.081885666 
0.99500644 -0.03724382 0.092602395 
0.9932795 -0.05157364 0.10361522 
0.9913382 -0.0643302 0.114499934 
0.98925036 -0.074716635 0.12570287 
0.987192 -0.0817108 0.13702293 
0.9852211 -0.08434193 0.14908397 
0.98353624 -0.08084304 0.16161998 
0.98216784 -0.07037695 0.17433742 
0.9812179 -0.05191266 0.18578649 
0.98053503 -0.026286375 0.19457723 
0.9799027 0.006229665 0.19937904 
0.97886705 0.04343525 0.19983187 
0.977065 0.084672205 0.19538344 
0.9740619 0.12416372 0.18917413 
0.97070813 0.16348052 0.17606787 
0 0 0 
0 0 0 
0 0 0 
0 0 0 
0 0 0 
0 0 0 
0 0 0 
0 0 0 
0 0 0 
0.8953694 0.009982865 -0.44521236 
0.896614 0.018667862 -0.44241926 
0.90120053 0.034404878 -0.43203473 
0.907378 0.05025701 -0.41730005 
0.91406786 0.06364391 -0.40053645 
0.9214434 0.074767515 -0.3812504 
0.92960846 0.08257593 -0.3591787 
0.9383205 0.087710336 -0.33445722 
0.94725525 0.08925263 -0.30780128 
0.95581824 0.08791333 -0.2805044 
0.9637397 0.0831879 -0.25354615 
0.9706996 0.07629603 -0.22786246 
0.97674364 0.06746375 -0.20352021 
0.9817979 0.05774774 -0.1809374 
0.9859919 0.047387995 -0.15992007 
0.9893367 0.036950674 -0.1408814 
0.99197465 0.026984163 -0.123524286 
0.9939932 0.017909067 -0.10796722 
0.99553806 0.010494996 -0.09377616 
0.99671155 0.0047753896 -0.080890514 
0.99761033 0.0011875319 -0.06908266 
0.99830735 -0.0007682725 -0.058154732 
0.99884796 -0.0011416007 -0.047975574 
0.99927163 -0.0004483074 -0.03815817 
0.9995795 0.001316012 -0.028969947 
0.9997853 0.0041876324 -0.02029609 
0.9998851 0.00808727 -0.012822661 
0.99989676 0.01296403 -0.0061947503 
0.99983555 0.01812532 -0.0006883854 
0.9997198 0.023233354 0.004543283 
0.9995775 0.02754504 0.0092747845 
0.99942446 0.030872812 0.014059723 
0.999289 0.03288232 0.01844899 
0.99918395 0.03325117 0.022932325 
0.9991203 0.031666186 0.027496036 
0.999087 0.027421055 0.032762542 
0.99903184 0.020594556 0.03887411 
0.9988844 0.010947058 0.045937464 
0.9985419 -0.0006044878 0.053980067 
0.99793416 -0.013666328 0.06277511 
0.997002 -0.026975228 0.07252147 
0.9957714 -0.039810266 0.082792394 
0.9942728 -0.0511598 0.0938311 
0.9926381 -0.060151834 0.10512521 
0.9909304 -0.066009104 0.11704663 
0.98933524 -0.06724883 0.12920272 
0.9878984 -0.06305037 0.14170946 
0.9867775 -0.051745858 0.15359925 
0.985909 -0.03342075 0.16391021 
0.98520684 -0.00740831 0.17120945 
0.98432064 0.025011046 0.17460635 
0.98275274 0.06342063 0.17370915 
0.98002183 0.1057779 0.16842869 
0.97573936 0.15023305 0.15925664 
0.970211 0.1945355 0.14438304 
0.96495473 0.2320711 0.12249638 
0 0 0 
0 0 0 
0 0 0 
0 0 0 
0 0 0 
0 0 0 
0 0 0 
0.90522003 0.01666828 -0.4246162 
0.90641826 0.01813607 -0.42199177 
0.9102879 0.03128871 -0.41279173 
0.9153468 0.049575288 -0.39960322 
0.920834 0.06800953 -0.38397855 
0.9264939 0.084744655 -0.3666435 
0.932539 0.09800503 -0.34751433 
0.9390768 0.10822293 -0.3262248 
0.94615287 0.114434704 -0.3028195 
0.9533937 0.117611155 -0.2778636 
0.9605711 0.11696229 -0.2522358 
0.96723175 0.11362712 -0.22705029 
0.9733162 0.10730278 -0.20283428 
0.9786078 0.099183425 -0.18024866 
0.98318785 0.08927818 -0.15928367 
0.9869766 0.07838889 -0.14047208 
0.99006414 0.06690451 -0.12368078 
0.9924656 0.055501264 -0.109232314 
0.9942936 0.045053773 -0.09669795 
0.9956553 0.035882607 -0.08592484 
0.9966675 0.028682368 -0.07636179 
0.99744046 0.02312519 -0.06766006 
0.9980419 0.019393025 -0.059467148 
0.99854267 0.016823234 -0.05128046 
0.99895567 0.015412232 -0.04301246 
0.99929744 0.01499511 -0.03434973 
0.9995405 0.015718214 -0.025916072 
0.99968565 0.017717678 -0.01773999 
0.99973154 0.02060883 -0.010593958 
0.9996986 0.024210112 -0.004081454 
0.9996146 0.027726308 0.0013777417 
0.99950165 0.030925367 0.0063352515 
0.9993926 0.03329272 0.0102954535 
0.9993033 0.034715 0.01370441 
0.9992526 0.0350153 0.016379254 
0.99925035 0.033683702 0.019085275 
0.99928814 0.03056776 0.022113105 
0.9993488 0.025006335 0.026014017 
0.99936855 0.017447745 0.03095412 
0.9992857 0.0077709435 0.036984425 
0.9990122 -0.003009045 0.04433594 
0.9985021 -0.014446063 0.052773695 
0.9977216 -0.025380649 0.0625089 
0.99672097 -0.034976605 0.072965115 
0.9955371 -0.042424846 0.08429786 
0.99430436 -0.046540502 0.09587964 
0.99307096 -0.04669037 0.10784246 
0.9919871 -0.041172814 0.11944203 
0.99104226 -0.029748792 0.13019346 
0.9902547 -0.011046573 0.13882938 
0.98942137 0.014159154 0.14437741 
0.98819137 0.04637996 0.14603668 
0.9860936 0.08390633 0.14345457 
0.9825594 0.12615974 0.13660459 
0.9773891 0.17036486 0.12524576 
0.9706846 0.21436344 0.10871906 
0.96353865 0.25332177 0.08614778 
0.9579337 0.2812151 0.057282273 
0 0 0 
0 0 0 
0 0 0 
0 0 0 
0 0 0 
0.9124776 0.04358216 -0.40679878 
0.9145905 0.034476932 -0.40290886 
0.9187297 0.03922395 -0.39293432 
0.92366713 0.052819252 -0.37953818 
0.92867064 0.070596084 -0.36412528 
0.9334801 0.08953622 -0.3472726 
0.93816197 0.10640301 -0.32943985 
0.94292295 0.12076056 -0.31034383 
0.9480477 0.13108726 -0.28986484 
0.9534635 0.13835156 -0.26789206 
0.9591688 0.1415956 -0.24483891 
0.9647714 0.1420532 -0.22144325 
0.9702199 0.13899699 -0.19837636 
0.97520024 0.13365808 -0.17640905 
0.97976995 0.1256494 -0.15576665 
0.98375213 0.115927145 -0.13708682 
0.9872058 0.10452295 -0.12041506 
0.9900483 0.09224556 -0.10627952 
0.99232054 0.079868294 -0.094451405 
0.99405634 0.06806132 -0.08496831 
0.9953406 0.05777117 -0.077199645 
0.9962962 0.048981093 -0.07067354 
0.9970083 0.04219238 -0.06476373 
0.9975874 0.036778066 -0.058879416 
0.9980736 0.032775704 -0.052677937 
0.9985184 0.029653797 -0.045624793 
0.9988984 0.027571961 -0.03797302 
0.99920404 0.02664996 -0.029685047 
0.999404 0.026863668 -0.021682482 
0.9995026 0.028257275 -0.014009203 
0.99951565 0.030214349 -0.0074525187 
0.9994672 0.03259646 -0.0016966318 
0.99939334 0.03472697 0.0026639074 
0.99931544 0.0365034 0.0060281446 
0.99925804 0.0376694 0.00802964 
0.9992332 0.03801834 0.009371547 
0.99924606 0.03743816 0.010279525 
0.99931264 0.035208073 0.011605552 
0.9994126 0.031429924 0.013661933 
0.99953216 0.025556965 0.016804297 
0.9996063 0.018289328 0.021276852 
0.9995867 0.009610265 0.027097087 
0.9994038 0.00055662054 0.034525204 
0.999035 -0.008254436 0.04313824 
0.9984672 -0.015854718 0.053027693 
0.997758 -0.021233587 0.063469134 
0.99693894 -0.023851873 0.07445792 
0.9961149 -0.022241378 0.08520786 
0.9952981 -0.01615487 0.095502846 
0.9945323 -0.0039398316 0.10435526 
0.9937223 0.013945968 0.11100302 
0.9926755 0.038624298 0.114471294 
0.99107826 0.068786986 0.11415911 
0.98841923 0.10469304 0.10984986 
0.98437154 0.1440787 0.101262264 
0.9786169 0.1857532 0.088344455 
0.9715186 0.22624357 0.07046582 
0.96374714 0.26257768 0.047377158 
0.9567028 0.29046103 0.018769313 
0.9520968 0.30543432 -0.01488071 
0 0 0 
0 0 0 
0 0 0 
0.91568166 0.08722794 -0.3923242 
0.9195432 0.06857897 -0.38695914 
0.9247516 0.06326291 -0.37527633 
0.93030125 0.06805876 -0.360427 
0.93559927 0.079715975 -0.34394675 
0.9403824 0.09564389 -0.3263943 
0.94462645 0.11213285 -0.30839428 
0.9484931 0.12783274 -0.28986138 
0.9523096 0.14041282 -0.27090728 
0.9561854 0.15039961 -0.2511765 
0.96032727 0.15653975 -0.23079598 
0.964516 0.16012298 -0.20992784 
0.96881884 0.1601494 -0.18905604 
0.97292954 0.15790252 -0.16874531 
0.97694886 0.15257774 -0.14930145 
0.98064506 0.14522311 -0.13132238 
0.98409265 0.13541573 -0.114996895 
0.9871281 0.124004 -0.101001024 
0.9897587 0.11135426 -0.0893199 
0.99191195 0.09833299 -0.080257714 
0.9935934 0.08596462 -0.073364004 
0.9948697 0.07462936 -0.06829906 
0.9958026 0.06515468 -0.0642827 
0.9965227 0.057164557 -0.060618993 
0.9970878 0.050955422 -0.056740906 
0.997598 0.0457677 -0.051996116 
0.99805856 0.04165322 -0.04630541 
0.99848586 0.038403522 -0.039384585 
0.99883425 0.036209006 -0.031921815 
0.9990882 0.035258282 -0.024076639 
0.9992365 0.035242517 -0.016866755 
0.9992915 0.036199808 -0.0103062205 
0.9992835 0.03748863 -0.005210635 
0.99923605 0.039060913 -0.0013215335 
0.99918157 0.040442992 0.00084274047 
0.9991339 0.041571446 0.0018645189 
0.9991004 0.042369947 0.0017815403 
0.99910086 0.042370483 0.0015253469 
0.9991355 0.041548062 0.001463584 
0.99923176 0.039128266 0.0022368156 
0.9993603 0.0355304 0.004081501 
0.9995137 0.030337216 0.0072174193 
0.99963224 0.024355015 0.011924433 
0.99968016 0.017739458 0.018028257 
0.99960554 0.0114463875 0.025648344 
0.9993966 0.0062702163 0.034164954 
0.9990482 0.0028269545 0.04353023 
0.9985975 0.0023215185 0.05289293 
0.9980609 0.0049362485 0.06204988 
0.99746126 0.012278773 0.07014504 
0.9967623 0.024029475 0.07673079 
0.99585027 0.04164072 0.08092193 
0.99456775 0.06403323 0.082065806 
0.99255395 0.092088506 0.079727724 
0.98955286 0.12401865 0.073516354 
0.9851296 0.15967113 0.06344195 
0.9793237 0.19625893 0.049068607 
0.9721945 0.23219575 0.030382123 
0.96450716 0.26396596 0.0069355965 
0.9570328 0.28922448 -0.02091504 
0.9509612 0.30481625 -0.05253606 
0.947797 0.30701426 -0.086157955 
0 0 0 
0 0 0 
0.9214004 0.10760996 -0.3734187 
0.9275081 0.09970928 -0.36025932 
0.9341265 0.09684487 -0.34355333 
0.94025874 0.10033212 -0.32534146 
0.9456301 0.1094599 -0.30627167 
0.95017576 0.121366344 -0.28711718 
0.95399565 0.13459258 -0.2679126 
0.95736885 0.14635368 -0.24904914 
0.96046066 0.15661539 -0.23018913 
0.9635692 0.16370347 -0.21150763 
0.96661204 0.16878802 -0.19280015 
0.9697759 0.1706937 -0.17435104 
0.9728255 0.17078596 -0.15634161 
0.9759474 0.16794388 -0.13900234 
0.9789227 0.16328283 -0.122674316 
0.9819036 0.15590939 -0.10750632 
0.9846919 0.14669144 -0.09414576 
0.98732525 0.13543126 -0.08274877 
0.9896581 0.12299151 -0.07382443 
0.9916479 0.110122465 -0.06713882 
0.99326044 0.097515 -0.06264603 
0.9944896 0.08619358 -0.059675083 
0.9954335 0.076128006 -0.05759075 
0.996134 0.06797293 -0.055649333 
0.9967194 0.06106428 -0.053118385 
0.9972202 0.0555353 -0.049676977 
0.9977031 0.050757952 -0.04485902 
0.9981372 0.046892937 -0.03902982 
0.99851125 0.044021625 -0.032210596 
0.99878913 0.042155914 -0.02536133 
0.99896455 0.0414881 -0.018668419 
0.99905014 0.0415512 -0.013128883 
0.9990611 0.042442255 -0.008693352 
0.99903154 0.04358115 -0.0060550454 
0.9989778 0.044951785 -0.004777989 
0.9989139 0.046323493 -0.0050269673 
0.99885267 0.047521777 -0.0059350296 
0.9987942 0.048562203 -0.0072017703 
0.9987793 0.04874648 -0.007992548 
0.99880075 0.048289705 -0.008068158 
0.9988926 0.04651456 -0.007066757 
0.99901813 0.04404493 -0.004791253 
0.9991755 0.040583044 -0.0012073315 
0.9993113 0.036908664 0.0038348883 
0.9993937 0.033380836 0.009902782 
0.99938536 0.03066424 0.016987925 
0.9992629 0.029679425 0.024346242 
0.99902564 0.030616421 0.03178697 
0.9986523 0.034869235 0.038444106 
0.99814004 0.042172875 0.04402369 
0.99739146 0.054089762 0.04779781 
0.9963504 0.06969134 0.04928648 
0.99476874 0.090187505 0.047974467 
0.99252707 0.1140548 0.043377083 
0.98924303 0.14193006 0.035413135 
0.9848706 0.17167193 0.023636019 
0.9791763 0.20284699 0.008174396 
0.97249436 0.23264581 -0.011434884 
0.9650406 0.25976592 -0.03490321 
0.9575006 0.28166944 -0.062089305 
0.95037395 0.2974905 -0.09104278 
0.9446936 0.30664176 -0.11629586 
0 0 0 
0.92393553 0.16955104 -0.34292227 
0.92837363 0.14532016 -0.34205925 
0.9350453 0.13592394 -0.32743716 
0.9420384 0.13221847 -0.30835354 
0.94834596 0.13363592 -0.2877178 
0.9536925 0.13857041 -0.26696217 
0.9580813 0.14618939 -0.24639195 
0.96172637 0.15395795 -0.22667022 
0.9647868 0.16157609 -0.20755598 
0.9675814 0.1670818 -0.18939385 
0.9701021 0.17138006 -0.1718457 
0.9725939 0.1731484 -0.15517975 
0.9748794 0.17382553 -0.1392655 
0.97719955 0.1721617 -0.12426384 
0.979368 0.16939056 -0.11020614 
0.9816294 0.1642511 -0.097084224 
0.98381186 0.15762645 -0.08525399 
0.98603916 0.1487406 -0.074854076 
0.9881455 0.13838494 -0.06647002 
0.99011767 0.12674218 -0.060028747 
0.99184984 0.11458187 -0.055722065 
0.9932815 0.102831036 -0.053083185 
0.99443454 0.09177596 -0.051743016 
0.99530214 0.08231253 -0.05097387 
0.9959976 0.07404343 -0.05006358 
0.9965446 0.0674183 -0.04851439 
0.997048 0.061660703 -0.045752887 
0.99750173 0.056889 -0.04187979 
0.9979278 0.05281526 -0.036753736 
0.9982832 0.049612872 -0.031130783 
0.99855334 0.047512088 -0.02517818 
0.9987288 0.046306193 -0.01991113 
0.9988116 0.0462361 -0.015414585 
0.99882674 0.046780907 -0.012517988 
0.9987859 0.04803167 -0.010941233 
0.998711 0.049545083 -0.011035664 
0.9986112 0.051286906 -0.01205771 
0.9984857 0.053240612 -0.0138462065 
0.9983656 0.055010095 -0.015492036 
0.99824727 0.056759465 -0.01675595 
0.99818367 0.057756513 -0.017137531 
0.9981508 0.058483955 -0.016573334 
0.998184 0.05835482 -0.01494715 
0.99824274 0.057996437 -0.012163449 
0.9983242 0.057246108 -0.008470406 
0.99838537 0.05667289 -0.0038675903 
0.9983869 0.056766883 0.0010690266 
0.9983119 0.057743933 0.006260178 
0.99809796 0.060671136 0.010937925 
0.99775296 0.06532797 0.014874292 
0.9971647 0.07321427 0.017387044 
0.99633676 0.08356091 0.018185392 
0.9950682 0.09776032 0.01680312 
0.9933506 0.11441382 0.012809818 
0.99088615 0.13456699 0.00603551 
0.98767453 0.15647008 -0.0040125703 
0.9834063 0.1805968 -0.017229734 
0.9782135 0.20478211 -0.034099873 
0.9719808 0.2286987 -0.0543173 
0.96505797 0.2500859 -0.07823187 
0.95756316 0.26831087 -0.105271466 
0.94998395 0.28155485 -0.13511986 
0.9430184 0.28765848 -0.16723949 
0.93838364 0.27642626 -0.20742413 
0.9260255 0.1933296 -0.3241921 
0.93279845 0.18112749 -0.3115765 
0.9406249 0.17209461 -0.292589 
0.9480508 0.16702822 -0.2707423 
0.954541 0.16492167 -0.24829896 
0.9599429 0.16559282 -0.22602834 
0.96439433 0.16724062 -0.20487595 
0.9680129 0.16973501 -0.18477288 
0.97110844 0.17120165 -0.16624792 
0.97371376 0.17234245 -0.14892861 
0.9761037 0.17173134 -0.13315438 
0.9781445 0.1707769 -0.118611544 
0.98008674 0.16823624 -0.10548219 
0.9817538 0.16553795 -0.09357728 
0.9834249 0.1612953 -0.08282061 
0.9849612 0.15649635 -0.073214106 
0.98658514 0.14988402 -0.064688124 
0.9881592 0.14218894 -0.057652917 
0.98975503 0.13294083 -0.052075606 
0.99125415 0.122821495 -0.04827251 
0.9926127 0.11230653 -0.04590487 
0.99378914 0.10183201 -0.044871613 
0.99473315 0.09228839 -0.04459721 
0.9955086 0.083523385 -0.044570062 
0.996105 0.076271445 -0.044245616 
0.9966259 0.069888875 -0.0430397 
0.9970693 0.064685844 -0.040848248 
0.99749357 0.060060006 -0.037408553 
0.9978651 0.05619702 -0.033275425 
0.99817973 0.05312711 -0.028546555 
0.9984126 0.050884265 -0.024148334 
0.99855554 0.049791444 -0.020191686 
0.9986197 0.049507905 -0.01754564 
0.998606 0.050291963 -0.016026894 
0.99853635 0.051627908 -0.016115086 
0.99841654 0.05356392 -0.017188616 
0.99825233 0.05587726 -0.01923975 
0.9980631 0.058424987 -0.021370761 
0.9978414 0.06137103 -0.023370223 
0.99763536 0.06417731 -0.0245981 
0.99742043 0.067262515 -0.025066316 
0.9972465 0.069945104 -0.024638817 
0.9970733 0.07278339 -0.023396166 
0.9969346 0.07522877 -0.02149822 
0.9967945 0.07771624 -0.01899579 
0.99664617 0.08018303 -0.01634318 
0.9964746 0.082790405 -0.013566758 
0.99622 0.086134955 -0.01124565 
0.9958965 0.09000455 -0.009449657 
0.9953761 0.09565225 -0.008785084 
0.9946916 0.10246988 -0.009415243 
0.99364436 0.111947425 -0.011773411 
0.99229157 0.12286775 -0.016158238 
0.99038184 0.1364758 -0.02276498 
0.9879905 0.15115719 -0.03203771 
0.98482645 0.16789076 -0.04392735 
0.9809797 0.18494056 -0.058956727 
0.97619665 0.20282891 -0.076815575 
0.97062474 0.21977338 -0.09791467 
0.9641275 0.23586778 -0.121756256 
0.9569106 0.24957497 -0.14843984 
0.9490972 0.26055208 -0.17699496 
0.94141406 0.26685387 -0.20622444 
0.9353362 0.26725116 -0.23178236 
0.92907375 0.22179201 -0.29602426 
0.9362614 0.21389465 -0.27868208 
0.9445722 0.20576197 -0.25582314 
0.95233583 0.19866452 -0.23149258 
0.95904785 0.19312812 -0.20719245 
0.9647087 0.18822019 -0.1841475 
0.96935385 0.18425974 -0.16248581 
0.97325534 0.17987713 -0.14289269 
0.97644573 0.17583008 -0.12505078 
0.9792145 0.17080581 -0.10938159 
0.9814722 0.16613398 -0.09545586 
0.9834803 0.16060856 -0.08349596 
0.985076 0.15579571 -0.07316387 
0.9865247 0.15039073 -0.06443363 
0.9876902 0.14563227 -0.057090938 
0.9888346 0.14005116 -0.05091009 
0.9898597 0.13440394 -0.045971837 
0.99092734 0.12763794 -0.042090148 
0.99194705 0.12032647 -0.039531656 
0.9929477 0.11230324 -0.037985474 
0.99387467 0.103956155 -0.037502166 
0.9946852 0.09584914 -0.037609607 
0.995397 0.087959036 -0.0380553 
0.9959693 0.081070915 -0.038374603 
0.99647593 0.07471462 -0.03812504 
0.9968931 0.06948229 -0.037099335 
0.9972899 0.064728685 -0.034973662 
0.99763596 0.06075558 -0.032113884 
0.99794906 0.05728756 -0.028564347 
0.99819815 0.054472443 -0.025164368 
0.9983754 0.052547473 -0.022029243 
0.99847794 0.051395416 -0.020009568 
0.99849725 0.05141734 -0.018960174 
0.9984477 0.0522059 -0.019413225 
0.99832577 0.053969353 -0.020811183 
0.9981431 0.056300953 -0.023255302 
0.997912 0.05917325 -0.025889108 
0.9976307 0.062590726 -0.028553346 
0.99733526 0.06627691 -0.030491758 
0.9969974 0.07064517 -0.031709425 
0.9966591 0.075147696 -0.031994294 
0.996265 0.08035549 -0.03160939 
0.99585766 0.085570686 -0.030744763 
0.9953939 0.0911822 -0.029614048 
0.9949074 0.09664538 -0.028621146 
0.9943932 0.10201205 -0.027851664 
0.99384016 0.10728604 -0.027778355 
0.9932827 0.1121911 -0.02833333 
0.99261945 0.11751636 -0.029941611 
0.99190557 0.12273233 -0.032561842 
0.9909374 0.1292515 -0.036565717 
0.98979676 0.136121 -0.042113997 
0.988233 0.1447481 -0.04943425 
0.98637193 0.15364231 -0.058859974 
0.9839504 0.16398315 -0.07036598 